# vtk DataFile Version 3.0
#This file was generated by the deal.II library on 2015/6/22 at 20:47:11
ASCII
DATASET UNSTRUCTURED_GRID

POINTS 4096 double
0 0 0
0.03125 0 0
0 0.03125 0
0.03125 0.03125 0
0.03125 0 0
0.0625 0 0
0.03125 0.03125 0
0.0625 0.03125 0
0 0.03125 0
0.03125 0.03125 0
0 0.0625 0
0.03125 0.0625 0
0.03125 0.03125 0
0.0625 0.03125 0
0.03125 0.0625 0
0.0625 0.0625 0
0.0625 0 0
0.09375 0 0
0.0625 0.03125 0
0.09375 0.03125 0
0.09375 0 0
0.125 0 0
0.09375 0.03125 0
0.125 0.03125 0
0.0625 0.03125 0
0.09375 0.03125 0
0.0625 0.0625 0
0.09375 0.0625 0
0.09375 0.03125 0
0.125 0.03125 0
0.09375 0.0625 0
0.125 0.0625 0
0 0.0625 0
0.03125 0.0625 0
0 0.09375 0
0.03125 0.09375 0
0.03125 0.0625 0
0.0625 0.0625 0
0.03125 0.09375 0
0.0625 0.09375 0
0 0.09375 0
0.03125 0.09375 0
0 0.125 0
0.03125 0.125 0
0.03125 0.09375 0
0.0625 0.09375 0
0.03125 0.125 0
0.0625 0.125 0
0.0625 0.0625 0
0.09375 0.0625 0
0.0625 0.09375 0
0.09375 0.09375 0
0.09375 0.0625 0
0.125 0.0625 0
0.09375 0.09375 0
0.125 0.09375 0
0.0625 0.09375 0
0.09375 0.09375 0
0.0625 0.125 0
0.09375 0.125 0
0.09375 0.09375 0
0.125 0.09375 0
0.09375 0.125 0
0.125 0.125 0
0.125 0 0
0.15625 0 0
0.125 0.03125 0
0.15625 0.03125 0
0.15625 0 0
0.1875 0 0
0.15625 0.03125 0
0.1875 0.03125 0
0.125 0.03125 0
0.15625 0.03125 0
0.125 0.0625 0
0.15625 0.0625 0
0.15625 0.03125 0
0.1875 0.03125 0
0.15625 0.0625 0
0.1875 0.0625 0
0.1875 0 0
0.21875 0 0
0.1875 0.03125 0
0.21875 0.03125 0
0.21875 0 0
0.25 0 0
0.21875 0.03125 0
0.25 0.03125 0
0.1875 0.03125 0
0.21875 0.03125 0
0.1875 0.0625 0
0.21875 0.0625 0
0.21875 0.03125 0
0.25 0.03125 0
0.21875 0.0625 0
0.25 0.0625 0
0.125 0.0625 0
0.15625 0.0625 0
0.125 0.09375 0
0.15625 0.09375 0
0.15625 0.0625 0
0.1875 0.0625 0
0.15625 0.09375 0
0.1875 0.09375 0
0.125 0.09375 0
0.15625 0.09375 0
0.125 0.125 0
0.15625 0.125 0
0.15625 0.09375 0
0.1875 0.09375 0
0.15625 0.125 0
0.1875 0.125 0
0.1875 0.0625 0
0.21875 0.0625 0
0.1875 0.09375 0
0.21875 0.09375 0
0.21875 0.0625 0
0.25 0.0625 0
0.21875 0.09375 0
0.25 0.09375 0
0.1875 0.09375 0
0.21875 0.09375 0
0.1875 0.125 0
0.21875 0.125 0
0.21875 0.09375 0
0.25 0.09375 0
0.21875 0.125 0
0.25 0.125 0
0 0.125 0
0.03125 0.125 0
0 0.15625 0
0.03125 0.15625 0
0.03125 0.125 0
0.0625 0.125 0
0.03125 0.15625 0
0.0625 0.15625 0
0 0.15625 0
0.03125 0.15625 0
0 0.1875 0
0.03125 0.1875 0
0.03125 0.15625 0
0.0625 0.15625 0
0.03125 0.1875 0
0.0625 0.1875 0
0.0625 0.125 0
0.09375 0.125 0
0.0625 0.15625 0
0.09375 0.15625 0
0.09375 0.125 0
0.125 0.125 0
0.09375 0.15625 0
0.125 0.15625 0
0.0625 0.15625 0
0.09375 0.15625 0
0.0625 0.1875 0
0.09375 0.1875 0
0.09375 0.15625 0
0.125 0.15625 0
0.09375 0.1875 0
0.125 0.1875 0
0 0.1875 0
0.03125 0.1875 0
0 0.21875 0
0.03125 0.21875 0
0.03125 0.1875 0
0.0625 0.1875 0
0.03125 0.21875 0
0.0625 0.21875 0
0 0.21875 0
0.03125 0.21875 0
0 0.25 0
0.03125 0.25 0
0.03125 0.21875 0
0.0625 0.21875 0
0.03125 0.25 0
0.0625 0.25 0
0.0625 0.1875 0
0.09375 0.1875 0
0.0625 0.21875 0
0.09375 0.21875 0
0.09375 0.1875 0
0.125 0.1875 0
0.09375 0.21875 0
0.125 0.21875 0
0.0625 0.21875 0
0.09375 0.21875 0
0.0625 0.25 0
0.09375 0.25 0
0.09375 0.21875 0
0.125 0.21875 0
0.09375 0.25 0
0.125 0.25 0
0.125 0.125 0
0.15625 0.125 0
0.125 0.15625 0
0.15625 0.15625 0
0.15625 0.125 0
0.1875 0.125 0
0.15625 0.15625 0
0.1875 0.15625 0
0.125 0.15625 0
0.15625 0.15625 0
0.125 0.1875 0
0.15625 0.1875 0
0.15625 0.15625 0
0.1875 0.15625 0
0.15625 0.1875 0
0.1875 0.1875 0
0.1875 0.125 0
0.21875 0.125 0
0.1875 0.15625 0
0.21875 0.15625 0
0.21875 0.125 0
0.25 0.125 0
0.21875 0.15625 0
0.25 0.15625 0
0.1875 0.15625 0
0.21875 0.15625 0
0.1875 0.1875 0
0.21875 0.1875 0
0.21875 0.15625 0
0.25 0.15625 0
0.21875 0.1875 0
0.25 0.1875 0
0.125 0.1875 0
0.15625 0.1875 0
0.125 0.21875 0
0.15625 0.21875 0
0.15625 0.1875 0
0.1875 0.1875 0
0.15625 0.21875 0
0.1875 0.21875 0
0.125 0.21875 0
0.15625 0.21875 0
0.125 0.25 0
0.15625 0.25 0
0.15625 0.21875 0
0.1875 0.21875 0
0.15625 0.25 0
0.1875 0.25 0
0.1875 0.1875 0
0.21875 0.1875 0
0.1875 0.21875 0
0.21875 0.21875 0
0.21875 0.1875 0
0.25 0.1875 0
0.21875 0.21875 0
0.25 0.21875 0
0.1875 0.21875 0
0.21875 0.21875 0
0.1875 0.25 0
0.21875 0.25 0
0.21875 0.21875 0
0.25 0.21875 0
0.21875 0.25 0
0.25 0.25 0
0.25 0 0
0.28125 0 0
0.25 0.03125 0
0.28125 0.03125 0
0.28125 0 0
0.3125 0 0
0.28125 0.03125 0
0.3125 0.03125 0
0.25 0.03125 0
0.28125 0.03125 0
0.25 0.0625 0
0.28125 0.0625 0
0.28125 0.03125 0
0.3125 0.03125 0
0.28125 0.0625 0
0.3125 0.0625 0
0.3125 0 0
0.34375 0 0
0.3125 0.03125 0
0.34375 0.03125 0
0.34375 0 0
0.375 0 0
0.34375 0.03125 0
0.375 0.03125 0
0.3125 0.03125 0
0.34375 0.03125 0
0.3125 0.0625 0
0.34375 0.0625 0
0.34375 0.03125 0
0.375 0.03125 0
0.34375 0.0625 0
0.375 0.0625 0
0.25 0.0625 0
0.28125 0.0625 0
0.25 0.09375 0
0.28125 0.09375 0
0.28125 0.0625 0
0.3125 0.0625 0
0.28125 0.09375 0
0.3125 0.09375 0
0.25 0.09375 0
0.28125 0.09375 0
0.25 0.125 0
0.28125 0.125 0
0.28125 0.09375 0
0.3125 0.09375 0
0.28125 0.125 0
0.3125 0.125 0
0.3125 0.0625 0
0.34375 0.0625 0
0.3125 0.09375 0
0.34375 0.09375 0
0.34375 0.0625 0
0.375 0.0625 0
0.34375 0.09375 0
0.375 0.09375 0
0.3125 0.09375 0
0.34375 0.09375 0
0.3125 0.125 0
0.34375 0.125 0
0.34375 0.09375 0
0.375 0.09375 0
0.34375 0.125 0
0.375 0.125 0
0.375 0 0
0.40625 0 0
0.375 0.03125 0
0.40625 0.03125 0
0.40625 0 0
0.4375 0 0
0.40625 0.03125 0
0.4375 0.03125 0
0.375 0.03125 0
0.40625 0.03125 0
0.375 0.0625 0
0.40625 0.0625 0
0.40625 0.03125 0
0.4375 0.03125 0
0.40625 0.0625 0
0.4375 0.0625 0
0.4375 0 0
0.46875 0 0
0.4375 0.03125 0
0.46875 0.03125 0
0.46875 0 0
0.5 0 0
0.46875 0.03125 0
0.5 0.03125 0
0.4375 0.03125 0
0.46875 0.03125 0
0.4375 0.0625 0
0.46875 0.0625 0
0.46875 0.03125 0
0.5 0.03125 0
0.46875 0.0625 0
0.5 0.0625 0
0.375 0.0625 0
0.40625 0.0625 0
0.375 0.09375 0
0.40625 0.09375 0
0.40625 0.0625 0
0.4375 0.0625 0
0.40625 0.09375 0
0.4375 0.09375 0
0.375 0.09375 0
0.40625 0.09375 0
0.375 0.125 0
0.40625 0.125 0
0.40625 0.09375 0
0.4375 0.09375 0
0.40625 0.125 0
0.4375 0.125 0
0.4375 0.0625 0
0.46875 0.0625 0
0.4375 0.09375 0
0.46875 0.09375 0
0.46875 0.0625 0
0.5 0.0625 0
0.46875 0.09375 0
0.5 0.09375 0
0.4375 0.09375 0
0.46875 0.09375 0
0.4375 0.125 0
0.46875 0.125 0
0.46875 0.09375 0
0.5 0.09375 0
0.46875 0.125 0
0.5 0.125 0
0.25 0.125 0
0.28125 0.125 0
0.25 0.15625 0
0.28125 0.15625 0
0.28125 0.125 0
0.3125 0.125 0
0.28125 0.15625 0
0.3125 0.15625 0
0.25 0.15625 0
0.28125 0.15625 0
0.25 0.1875 0
0.28125 0.1875 0
0.28125 0.15625 0
0.3125 0.15625 0
0.28125 0.1875 0
0.3125 0.1875 0
0.3125 0.125 0
0.34375 0.125 0
0.3125 0.15625 0
0.34375 0.15625 0
0.34375 0.125 0
0.375 0.125 0
0.34375 0.15625 0
0.375 0.15625 0
0.3125 0.15625 0
0.34375 0.15625 0
0.3125 0.1875 0
0.34375 0.1875 0
0.34375 0.15625 0
0.375 0.15625 0
0.34375 0.1875 0
0.375 0.1875 0
0.25 0.1875 0
0.28125 0.1875 0
0.25 0.21875 0
0.28125 0.21875 0
0.28125 0.1875 0
0.3125 0.1875 0
0.28125 0.21875 0
0.3125 0.21875 0
0.25 0.21875 0
0.28125 0.21875 0
0.25 0.25 0
0.28125 0.25 0
0.28125 0.21875 0
0.3125 0.21875 0
0.28125 0.25 0
0.3125 0.25 0
0.3125 0.1875 0
0.34375 0.1875 0
0.3125 0.21875 0
0.34375 0.21875 0
0.34375 0.1875 0
0.375 0.1875 0
0.34375 0.21875 0
0.375 0.21875 0
0.3125 0.21875 0
0.34375 0.21875 0
0.3125 0.25 0
0.34375 0.25 0
0.34375 0.21875 0
0.375 0.21875 0
0.34375 0.25 0
0.375 0.25 0
0.375 0.125 0
0.40625 0.125 0
0.375 0.15625 0
0.40625 0.15625 0
0.40625 0.125 0
0.4375 0.125 0
0.40625 0.15625 0
0.4375 0.15625 0
0.375 0.15625 0
0.40625 0.15625 0
0.375 0.1875 0
0.40625 0.1875 0
0.40625 0.15625 0
0.4375 0.15625 0
0.40625 0.1875 0
0.4375 0.1875 0
0.4375 0.125 0
0.46875 0.125 0
0.4375 0.15625 0
0.46875 0.15625 0
0.46875 0.125 0
0.5 0.125 0
0.46875 0.15625 0
0.5 0.15625 0
0.4375 0.15625 0
0.46875 0.15625 0
0.4375 0.1875 0
0.46875 0.1875 0
0.46875 0.15625 0
0.5 0.15625 0
0.46875 0.1875 0
0.5 0.1875 0
0.375 0.1875 0
0.40625 0.1875 0
0.375 0.21875 0
0.40625 0.21875 0
0.40625 0.1875 0
0.4375 0.1875 0
0.40625 0.21875 0
0.4375 0.21875 0
0.375 0.21875 0
0.40625 0.21875 0
0.375 0.25 0
0.40625 0.25 0
0.40625 0.21875 0
0.4375 0.21875 0
0.40625 0.25 0
0.4375 0.25 0
0.4375 0.1875 0
0.46875 0.1875 0
0.4375 0.21875 0
0.46875 0.21875 0
0.46875 0.1875 0
0.5 0.1875 0
0.46875 0.21875 0
0.5 0.21875 0
0.4375 0.21875 0
0.46875 0.21875 0
0.4375 0.25 0
0.46875 0.25 0
0.46875 0.21875 0
0.5 0.21875 0
0.46875 0.25 0
0.5 0.25 0
0 0.25 0
0.03125 0.25 0
0 0.28125 0
0.03125 0.28125 0
0.03125 0.25 0
0.0625 0.25 0
0.03125 0.28125 0
0.0625 0.28125 0
0 0.28125 0
0.03125 0.28125 0
0 0.3125 0
0.03125 0.3125 0
0.03125 0.28125 0
0.0625 0.28125 0
0.03125 0.3125 0
0.0625 0.3125 0
0.0625 0.25 0
0.09375 0.25 0
0.0625 0.28125 0
0.09375 0.28125 0
0.09375 0.25 0
0.125 0.25 0
0.09375 0.28125 0
0.125 0.28125 0
0.0625 0.28125 0
0.09375 0.28125 0
0.0625 0.3125 0
0.09375 0.3125 0
0.09375 0.28125 0
0.125 0.28125 0
0.09375 0.3125 0
0.125 0.3125 0
0 0.3125 0
0.03125 0.3125 0
0 0.34375 0
0.03125 0.34375 0
0.03125 0.3125 0
0.0625 0.3125 0
0.03125 0.34375 0
0.0625 0.34375 0
0 0.34375 0
0.03125 0.34375 0
0 0.375 0
0.03125 0.375 0
0.03125 0.34375 0
0.0625 0.34375 0
0.03125 0.375 0
0.0625 0.375 0
0.0625 0.3125 0
0.09375 0.3125 0
0.0625 0.34375 0
0.09375 0.34375 0
0.09375 0.3125 0
0.125 0.3125 0
0.09375 0.34375 0
0.125 0.34375 0
0.0625 0.34375 0
0.09375 0.34375 0
0.0625 0.375 0
0.09375 0.375 0
0.09375 0.34375 0
0.125 0.34375 0
0.09375 0.375 0
0.125 0.375 0
0.125 0.25 0
0.15625 0.25 0
0.125 0.28125 0
0.15625 0.28125 0
0.15625 0.25 0
0.1875 0.25 0
0.15625 0.28125 0
0.1875 0.28125 0
0.125 0.28125 0
0.15625 0.28125 0
0.125 0.3125 0
0.15625 0.3125 0
0.15625 0.28125 0
0.1875 0.28125 0
0.15625 0.3125 0
0.1875 0.3125 0
0.1875 0.25 0
0.21875 0.25 0
0.1875 0.28125 0
0.21875 0.28125 0
0.21875 0.25 0
0.25 0.25 0
0.21875 0.28125 0
0.25 0.28125 0
0.1875 0.28125 0
0.21875 0.28125 0
0.1875 0.3125 0
0.21875 0.3125 0
0.21875 0.28125 0
0.25 0.28125 0
0.21875 0.3125 0
0.25 0.3125 0
0.125 0.3125 0
0.15625 0.3125 0
0.125 0.34375 0
0.15625 0.34375 0
0.15625 0.3125 0
0.1875 0.3125 0
0.15625 0.34375 0
0.1875 0.34375 0
0.125 0.34375 0
[...]
POINT_DATA 4096
SCALARS flux double 1
LOOKUP_TABLE default
1 1 1 1 1 0.999999940395355 1 0.999999940395355 1 1 1 1 1 0.999999940395355 1 0.999999940395355 0.999999940395355 0.99999988079071 0.999999940395355 0.99999988079071 0.99999988079071 0.999999582767487 0.99999988079071 0.999999582767487 0.999999940395355 0.99999988079071 0.999999940395355 0.99999988079071 0.99999988079071 0.999999582767487 0.99999988079071 0.999999582767487 1 1 1 1 1 0.999999940395355 1 0.999999940395355 1 1 1 1 1 0.999999940395355 1 0.999999940395355 0.999999940395355 0.99999988079071 0.999999940395355 0.99999988079071 0.99999988079071 0.999999582767487 0.99999988079071 0.999999582767487 0.999999940395355 0.99999988079071 0.999999940395355 0.99999988079071 0.99999988079071 0.999999582767487 0.99999988079071 0.999999582767487 0.999999582767487 0.999998807907104 0.999999582767487 0.999998807907104 0.999998807907104 0.999996900558472 0.999998807907104 0.999996900558472 0.999999582767487 0.999998807907104 0.999999582767487 0.999998807907104 0.999998807907104 0.999996900558472 0.999998807907104 0.999996900558472 0.999996900558472 0.999992370605469 0.999996900558472 0.999992370605469 0.999992370605469 0.999982118606567 0.999992370605469 0.999982118606567 0.999996900558472 0.999992370605469 0.999996900558472 0.999992370605469 0.999992370605469 0.999982118606567 0.999992370605469 0.999982118606567 0.999999582767487 0.999998807907104 0.999999582767487 0.999998807907104 0.999998807907104 0.999996900558472 0.999998807907104 0.999996900558472 0.999999582767487 0.999998807907104 0.999999582767487 0.999998807907104 0.999998807907104 0.999996900558472 0.999998807907104 0.999996900558472 0.999996900558472 0.999992370605469 0.999996900558472 0.999992370605469 0.999992370605469 0.999982118606567 0.999992370605469 0.999982118606567 0.999996900558472 0.999992370605469 0.999996900558472 0.999992370605469 0.999992370605469 0.999982118606567 0.999992370605469 0.999982118606567 1 1 1 1 1 0.999999940395355 1 0.999999940395355 1 1 1 1 1 0.999999940395355 1 0.999999940395355 0.999999940395355 0.99999988079071 0.999999940395355 0.99999988079071 0.99999988079071 0.999999582767487 0.99999988079071 0.999999582767487 0.999999940395355 0.99999988079071 0.999999940395355 0.99999988079071 0.99999988079071 0.999999582767487 0.99999988079071 0.999999582767487 1 1 1 1 1 0.999999940395355 1 0.999999940395355 1 1 1 1 1 0.999999940395355 1 0.999999940395355 0.999999940395355 0.99999988079071 0.999999940395355 0.99999988079071 0.99999988079071 0.999999582767487 0.99999988079071 0.999999582767487 0.999999940395355 0.99999988079071 0.999999940395355 0.99999988079071 0.99999988079071 0.999999582767487 0.99999988079071 0.999999582767487 0.999999582767487 0.999998807907104 0.999999582767487 0.999998807907104 0.999998807907104 0.999996900558472 0.999998807907104 0.999996900558472 0.999999582767487 0.999998807907104 0.999999582767487 0.999998807907104 0.999998807907104 0.999996900558472 0.999998807907104 0.999996900558472 0.999996900558472 0.999992370605469 0.999996900558472 0.999992370605469 0.999992370605469 0.999982118606567 0.999992370605469 0.999982118606567 0.999996900558472 0.999992370605469 0.999996900558472 0.999992370605469 0.999992370605469 0.999982118606567 0.999992370605469 0.999982118606567 0.999999582767487 0.999998807907104 0.999999582767487 0.999998807907104 0.999998807907104 0.999996900558472 0.999998807907104 0.999996900558472 0.999999582767487 0.999998807907104 0.999999582767487 0.999998807907104 0.999998807907104 0.999996900558472 0.999998807907104 0.999996900558472 0.999996900558472 0.999992370605469 0.999996900558472 0.999992370605469 0.999992370605469 0.999982118606567 0.999992370605469 0.999982118606567 0.999996900558472 0.999992370605469 0.999996900558472 0.999992370605469 0.999992370605469 0.999982118606567 0.999992370605469 0.999982118606567 0.999982118606567 0.999959945678711 0.999982118606567 0.999959945678711 0.999959945678711 0.999914288520813 0.999959945678711 0.999914288520813 0.999982118606567 0.999959945678711 0.999982118606567 0.999959945678711 0.999959945678711 0.999914288520813 0.999959945678711 0.999914288520813 0.999914288520813 0.999824106693268 0.999914288520813 0.999824106693268 0.999824106693268 0.999652981758118 0.999824106693268 0.999652981758118 0.999914288520813 0.999824106693268 0.999914288520813 0.999824106693268 0.999824106693268 0.999652981758118 0.999824106693268 0.999652981758118 0.999982118606567 0.999959945678711 0.999982118606567 0.999959945678711 0.999959945678711 0.999914288520813 0.999959945678711 0.999914288520813 0.999982118606567 0.999959945678711 0.999982118606567 0.999959945678711 0.999959945678711 0.999914288520813 0.999959945678711 0.999914288520813 0.999914288520813 0.999824106693268 0.999914288520813 0.999824106693268 0.999824106693268 0.999652981758118 0.999824106693268 0.999652981758118 0.999914288520813 0.999824106693268 0.999914288520813 0.999824106693268 0.999824106693268 0.999652981758118 0.999824106693268 0.999652981758118 0.999652981758118 0.999340772628784 0.999652981758118 0.999340772628784 0.999340772628784 0.998791992664337 0.999340772628784 0.998791992664337 0.999652981758118 0.999340772628784 0.999652981758118 0.999340772628784 0.999340772628784 0.998791992664337 0.999340772628784 0.998791992664337 0.998791992664337 0.997862160205841 0.998791992664337 0.997862160205841 0.997862160205841 0.996341168880463 0.997862160205841 0.996341168880463 0.998791992664337 0.997862160205841 0.998791992664337 0.997862100601196 0.997862160205841 0.996341168880463 0.997862100601196 0.996341049671173 0.999652981758118 0.999340772628784 0.999652981758118 0.999340713024139 0.999340772628784 0.998791992664337 0.999340713024139 0.998791933059692 0.999652981758118 0.999340713024139 0.999652981758118 0.999340713024139 0.999340713024139 0.998791933059692 0.999340713024139 0.998791813850403 0.998791992664337 0.997862100601196 0.998791933059692 0.997861981391907 0.997862100601196 0.996341049671173 0.997861981391907 0.996340692043304 0.998791933059692 0.997861981391907 0.998791813850403 0.997861623764038 0.997861981391907 0.996340692043304 0.997861623764038 0.996339797973633 0.999982118606567 0.999959945678711 0.999982118606567 0.999959945678711 0.999959945678711 0.999914288520813 0.999959945678711 0.999914288520813 0.999982118606567 0.999959945678711 0.999982118606567 0.999959945678711 0.999959945678711 0.999914288520813 0.999959945678711 0.999914288520813 0.999914288520813 0.999824106693268 0.999914288520813 0.999824106693268 0.999824106693268 0.999652981758118 0.999824106693268 0.999652922153473 0.999914288520813 0.999824106693268 0.999914288520813 0.999824106693268 0.999824106693268 0.999652922153473 0.999824106693268 0.999652922153473 0.999982118606567 0.999959945678711 0.999982118606567 0.999959945678711 0.999959945678711 0.999914288520813 0.999959945678711 0.999914288520813 0.999982118606567 0.999959945678711 0.999982118606567 0.999959945678711 0.999959945678711 0.999914288520813 0.999959945678711 0.999914288520813 0.999914288520813 0.999824106693268 0.999914288520813 0.999824047088623 0.999824106693268 0.999652922153473 0.999824047088623 0.999652802944183 0.999914288520813 0.999824047088623 0.999914288520813 0.999823987483978 0.999824047088623 0.999652802944183 0.999823987483978 0.999652564525604 0.999652981758118 0.999340713024139 0.999652922153473 0.99934059381485 0.999340713024139 0.998791813850403 0.99934059381485 0.998791575431824 0.999652922153473 0.99934059381485 0.999652922153473 0.999340415000916 0.99934059381485 0.998791575431824 0.999340415000916 0.998790919780731 0.998791813850403 0.997861623764038 0.998791575431824 0.997860848903656 0.997861623764038 0.996339797973633 0.997860848903656 0.996337652206421 0.998791575431824 0.997860848903656 0.998790919780731 0.997858941555023 0.997860848903656 0.996337652206421 0.997858941555023 0.996332466602325 0.999652922153473 0.999340415000916 0.999652802944183 0.999339997768402 0.999340415000916 0.998790919780731 0.999339997768402 0.998789429664612 0.999652802944183 0.999339997768402 0.999652564525604 0.999339044094086 0.999339997768402 0.998789429664612 0.999339044094086 0.998785972595215 0.998790919780731 0.997858941555023 0.998789429664612 0.997854292392731 0.997858941555023 0.996332466602325 0.997854292392731 0.996319651603699 0.998789429664612 0.997854292392731 0.998785972595215 0.997843146324158 0.997854292392731 0.996319651603699 0.997843146324158 0.996288478374481 1 1 1 1 1 0.999999940395355 1 0.999999940395355 1 1 1 1 1 0.999999940395355 1 0.999999940395355 0.999999940395355 0.99999988079071 0.999999940395355 0.99999988079071 0.99999988079071 0.999999582767487 0.99999988079071 0.999999582767487 0.999999940395355 0.99999988079071 0.999999940395355 0.99999988079071 0.99999988079071 0.999999582767487 0.99999988079071 0.999999582767487 1 1 1 1 1 0.999999940395355 1 0.999999940395355 1 1 1 1 1 0.999999940395355 1 0.999999940395355 0.999999940395355 0.99999988079071 0.999999940395355 0.99999988079071 0.99999988079071 0.999999582767487 0.99999988079071 0.999999582767487 0.999999940395355 0.99999988079071 0.999999940395355 0.99999988079071 0.99999988079071 0.999999582767487 0.99999988079071 0.999999582767487 0.999999582767487 0.999998807907104 0.999999582767487 0.999998807907104 0.999998807907104 0.999996900558472 0.999998807907104 0.999996900558472 0.999999582767487 0.999998807907104 0.999999582767487 0.999998807907104 0.999998807907104 0.999996900558472 0.999998807907104 0.999996900558472 0.999996900558472 0.999992370605469 0.999996900558472 0.999992370605469 0.999992370605469 0.999982118606567 0.999992370605469 0.999982118606567 0.999996900558472 0.999992370605469 0.999996900558472 0.999992370605469 0.999992370605469 0.999982118606567 0.999992370605469 0.999982118606567 0.999999582767487 0.999998807907104 0.999999582767487 0.999998807907104 0.999998807907104 0.999996900558472 0.999998807907104 0.999996900558472 0.999999582767487 0.999998807907104 0.999999582767487 0.999998807907104 0.999998807907104 0.999996900558472 0.999998807907104 0.999996900558472 0.999996900558472 0.999992370605469 0.999996900558472 0.999992370605469 0.999992370605469 0.999982118606567 0.999992370605469 0.999982118606567 0.999996900558472 0.999992370605469 0.999996900558472 0.999992370605469 0.999992370605469 0.999982118606567 0.999992370605469 0.999982118606567 1 1 1 1 1 0.999999940395355 1 0.999999940395355 1 1 1 1 1 0.999999940395355 1 0.999999940395355 0.999999940395355 0.99999988079071 0.999999940395355 0.99999988079071 0.99999988079071 0.999999582767487 0.99999988079071 0.999999582767487 0.999999940395355 0.99999988079071 0.999999940395355 0.99999988079071 0.99999988079071 0.999999582767487 0.99999988079071 0.999999582767487 1 1 1 1 1 0.999999940395355 1 0.999999940395355 1 1 1 1 1 0.999999940395355 1 0.999999940395355 0.999999940395355 0.99999988079071 0.999999940395355 0.99999988079071 0.99999988079071 0.999999582767487 0.99999988079071 0.999999582767487 0.999999940395355 0.99999988079071 0.999999940395355 0.99999988079071 0.99999988079071 0.999999582767487 0.99999988079071 0.999999582767487 0.999999582767487 0.999998807907104 0.999999582767487 0.999998807907104 0.999998807907104 0.999996900558472 0.999998807907104 0.999996900558472 0.999999582767487 0.999998807907104 0.999999582767487 0.999998807907104 0.999998807907104 0.999996900558472 0.999998807907104 0.999996900558472 0.999996900558472 0.999992370605469 0.999996900558472 0.999992370605469 0.999992370605469 0.999982118606567 0.999992370605469 0.999982118606567 0.999996900558472 0.999992370605469 0.999996900558472 0.999992370605469 0.999992370605469 0.999982118606567 0.999992370605469 0.999982118606567 0.999999582767487 0.999998807907104 0.999999582767487 0.999998807907104 0.999998807907104 0.999996900558472 0.999998807907104 0.999996900558472 0.999999582767487 0.999998807907104 0.999999582767487 0.999998807907104 0.999998807907104 0.999996900558472 0.999998807907104 0.999996900558472 0.999996900558472 0.999992370605469 0.999996900558472 0.999992370605469 0.999992370605469 0.999982118606567 0.999992370605469 0.999982118606567 0.999996900558472 0.999992370605469 0.999996900558472 0.999992370605469 0.999992370605469 0.999982118606567 0.999992370605469 0.999982059001923 0.999982118606567 0.999959945678711 0.999982118606567 0.999959945678711 0.999959945678711 0.999914288520813 0.999959945678711 0.999914228916168 0.999982118606567 0.999959945678711 0.999982118606567 0.999959945678711 0.999959945678711 0.999914228916168 0.999959945678711 0.999914228916168 0.999914288520813 0.999823987483978 0.999914228916168 0.999823927879333 0.999823987483978 0.999652564525604 0.999823927879333 0.999652087688446 0.999914228916168 0.999823927879333 0.999914228916168 0.999823749065399 0.999823927879333 0.999652087688446 0.999823749065399 0.99965113401413 0.999982118606567 0.999959945678711 0.999982118606567 0.999959945678711 0.999959945678711 0.999914228916168 0.999959945678711 0.999914169311523 0.999982118606567 0.999959945678711 0.999982118606567 0.999959945678711 0.999959945678711 0.999914169311523 0.999959945678711 0.999914109706879 0.999914228916168 0.999823749065399 0.999914169311523 0.999823451042175 0.999823749065399 0.99965113401413 0.999823451042175 0.999649405479431 0.999914169311523 0.999823451042175 0.999914109706879 0.999822974205017 0.999823451042175 0.999649405479431 0.999822974205017 0.999646425247192 0.999652564525604 0.999339044094086 0.999652087688446 0.999336957931519 0.999339044094086 0.998785972595215 0.999336957931519 0.998777866363525 0.999652087688446 0.999336957931519 0.99965113401413 0.999332427978516 0.999336957931519 0.998777866363525 0.999332427978516 0.998759388923645 0.998785972595215 0.997843146324158 0.998777866363525 0.997816443443298 0.997843146324158 0.996288478374481 0.997816443443298 0.996212422847748 0.998777866363525 0.997816443443298 0.998759388923645 0.997752666473389 0.997816443443298 0.996212422847748 0.997752666473389 0.996026635169983 0.99965113401413 0.999332427978516 0.999649405479431 0.999323189258575 0.999332427978516 0.998759388923645 0.999323189258575 0.998718082904816 0.999649405479431 0.999323189258575 0.999646425247192 0.999305367469788 0.999323189258575 0.998718082904816 0.999305367469788 0.99862813949585 0.998759388923645 0.997752666473389 0.998718082904816 0.997600793838501 0.997752666473389 0.996026635169983 0.997600793838501 0.995570600032806 0.998718082904816 0.997600793838501 0.99862813949585 0.997240662574768 0.997600793838501 0.995570600032806 0.997240662574768 0.994442164897919 0.999982118606567 0.999959945678711 0.999982118606567 0.999959886074066 0.999959945678711 0.999914109706879 0.999959886074066 0.999914050102234 0.999982118606567 0.999959886074066 0.999982118606567 0.999959886074066 0.999959886074066 0.999914050102234 0.999959886074066 0.999913930892944 0.999914109706879 0.999822974205017 0.999914050102234 0.999822318553925 0.999822974205017 0.999646425247192 0.999822318553925 0.999641835689545 0.999914050102234 0.999822318553925 0.999913930892944 0.999821484088898 0.999822318553925 0.999641835689545 0.999821484088898 0.999635457992554 0.999982118606567 0.999959886074066 0.999982118606567 0.999959886074066 0.999959886074066 0.999913930892944 0.999959886074066 0.99991375207901 0.999982118606567 0.999959886074066 0.999982059001923 0.999959886074066 0.999959886074066 0.99991375207901 0.999959886074066 0.99991363286972 0.999913930892944 0.999821484088898 0.99991375207901 0.999820411205292 0.999821484088898 0.999635457992554 0.999820411205292 0.999627590179443 0.99991375207901 0.999820411205292 0.99991363286972 0.999819338321686 0.999820411205292 0.999627590179443 0.999819338321686 0.999618828296661 0.999646425247192 0.999305367469788 0.999641835689545 0.99927431344986 0.999305367469788 0.99862813949585 0.99927431344986 0.998443126678467 0.999641835689545 0.99927431344986 0.999635457992554 0.999228298664093 0.99927431344986 0.998443126678467 0.999228298664093 0.998105108737946 0.99862813949585 0.997240662574768 0.998443126678467 0.996393620967865 0.997240662574768 0.994442164897919 0.996393620967865 0.991610884666443 0.998443126678467 0.996393620967865 0.998105108737946 0.994448184967041 0.996393620967865 0.991610884666443 0.994448184967041 0.984330356121063 0.999635457992554 0.999228298664093 0.999627590179443 0.99916684627533 0.999228298664093 0.998105108737946 0.99916684627533 0.997639358043671 0.999627590179443 0.99916684627533 0.999618828296661 0.999097764492035 0.99916684627533 0.997639358043671 0.999097764492035 0.997065246105194 0.998105108737946 0.994448184967041 0.997639358043671 0.990407526493073 0.994448184967041 0.984330356121063 0.990407526493073 0.964569509029388 0.997639358043671 0.990407526493073 0.997065246105194 0.985629022121429 0.990407526493073 0.964569509029388 0.985629022121429 0.908056855201721 0.996341168880463 0.993937492370605 0.996341168880463 0.993937432765961 0.993937492370605 0.990263938903809 0.993937432765961 0.990263760089874 0.996341168880463 0.993937432765961 0.996341049671173 0.993937075138092 0.993937432765961 0.990263760089874 0.993937075138092 0.990263044834137 0.990263938903809 0.984830319881439 0.990263760089874 0.984829962253571 0.984830319881439 0.977045714855194 0.984829962253571 0.977044939994812 0.990263760089874 0.984829962253571 0.990263044834137 0.984828412532806 0.984829962253571 0.977044939994812 0.984828412532806 0.977041959762573 0.996341049671173 0.993937075138092 0.996340692043304 0.993936240673065 0.993937075138092 0.990263044834137 0.993936240673065 0.990261137485504 0.996340692043304 0.993936240673065 0.996339797973633 0.993934094905853 0.993936240673065 0.990261137485504 0.993934094905853 0.990256369113922 0.990263044834137 0.984828412532806 0.990261137485504 0.984824419021606 0.984828412532806 0.977041959762573 0.984824419021606 0.977034211158752 0.990261137485504 0.984824419021606 0.990256369113922 0.984814584255219 0.984824419021606 0.977034211158752 0.984814584255219 0.977015316486359 0.977045714855194 0.966235101222992 0.977044939994812 0.966233670711517 0.966235101222992 0.951672792434692 0.966233670711517 0.951670289039612 0.977044939994812 0.966233670711517 0.977041959762573 0.966228246688843 0.966233670711517 0.951670289039612 0.966228246688843 0.951660931110382 0.951672792434692 0.932632446289062 0.951670289039612 0.932628393173218 0.932632446289062 0.908452153205872 0.932628393173218 0.908445835113525 0.951670289039612 0.932628393173218 0.951660931110382 0.932613134384155 0.932628393173218 0.908445835113525 0.932613134384155 0.908422350883484 0.977041959762573 0.966228246688843 0.977034211158752 0.966214239597321 0.966228246688843 0.951660931110382 0.966214239597321 0.951637089252472 0.977034211158752 0.966214239597321 0.977015316486359 0.966180443763733 0.966214239597321 0.951637089252472 0.966180443763733 0.95158052444458 0.951660931110382 0.932613134384155 0.951637089252472 0.932574987411499 0.932613134384155 0.908422350883484 0.932574987411499 0.908364653587341 0.951637089252472 0.932574987411499 0.95158052444458 0.932486057281494 0.932574987411499 0.908364653587341 0.932486057281494 0.908232629299164 0.996339797973633 0.993934094905853 0.996337652206421 0.993928909301758 0.993934094905853 0.990256369113922 0.993928909301758 0.990244686603546 0.996337652206421 0.993928909301758 0.996332466602325 0.993916034698486 0.993928909301758 0.990244686603546 0.993916034698486 0.990216076374054 0.990256369113922 0.984814584255219 0.990244686603546 0.984790563583374 0.984814584255219 0.977015316486359 0.984790563583374 0.976969838142395 0.990244686603546 0.984790563583374 0.990216076374054 0.984732508659363 0.984790563583374 0.976969838142395 0.984732508659363 0.976861596107483 0.996332466602325 0.993916034698486 0.996319651603699 0.993884563446045 0.993916034698486 0.990216076374054 0.993884563446045 0.990146517753601 0.996319651603699 0.993884563446045 0.996288478374481 0.993807673454285 0.993884563446045 0.990146517753601 0.993