# vtk DataFile Version 3.0
#This file was generated by the deal.II library on 2015/7/1 at 13:26:58
ASCII
DATASET UNSTRUCTURED_GRID

POINTS 4096 double
0 0 0
0.03125 0 0
0 0.03125 0
0.03125 0.03125 0
0.03125 0 0
0.0625 0 0
0.03125 0.03125 0
0.0625 0.03125 0
0 0.03125 0
0.03125 0.03125 0
0 0.0625 0
0.03125 0.0625 0
0.03125 0.03125 0
0.0625 0.03125 0
0.03125 0.0625 0
0.0625 0.0625 0
0.0625 0 0
0.09375 0 0
0.0625 0.03125 0
0.09375 0.03125 0
0.09375 0 0
0.125 0 0
0.09375 0.03125 0
0.125 0.03125 0
0.0625 0.03125 0
0.09375 0.03125 0
0.0625 0.0625 0
0.09375 0.0625 0
0.09375 0.03125 0
0.125 0.03125 0
0.09375 0.0625 0
0.125 0.0625 0
0 0.0625 0
0.03125 0.0625 0
0 0.09375 0
0.03125 0.09375 0
0.03125 0.0625 0
0.0625 0.0625 0
0.03125 0.09375 0
0.0625 0.09375 0
0 0.09375 0
0.03125 0.09375 0
0 0.125 0
0.03125 0.125 0
0.03125 0.09375 0
0.0625 0.09375 0
0.03125 0.125 0
0.0625 0.125 0
0.0625 0.0625 0
0.09375 0.0625 0
0.0625 0.09375 0
0.09375 0.09375 0
0.09375 0.0625 0
0.125 0.0625 0
0.09375 0.09375 0
0.125 0.09375 0
0.0625 0.09375 0
0.09375 0.09375 0
0.0625 0.125 0
0.09375 0.125 0
0.09375 0.09375 0
0.125 0.09375 0
0.09375 0.125 0
0.125 0.125 0
0.125 0 0
0.15625 0 0
0.125 0.03125 0
0.15625 0.03125 0
0.15625 0 0
0.1875 0 0
0.15625 0.03125 0
0.1875 0.03125 0
0.125 0.03125 0
0.15625 0.03125 0
0.125 0.0625 0
0.15625 0.0625 0
0.15625 0.03125 0
0.1875 0.03125 0
0.15625 0.0625 0
0.1875 0.0625 0
0.1875 0 0
0.21875 0 0
0.1875 0.03125 0
0.21875 0.03125 0
0.21875 0 0
0.25 0 0
0.21875 0.03125 0
0.25 0.03125 0
0.1875 0.03125 0
0.21875 0.03125 0
0.1875 0.0625 0
0.21875 0.0625 0
0.21875 0.03125 0
0.25 0.03125 0
0.21875 0.0625 0
0.25 0.0625 0
0.125 0.0625 0
0.15625 0.0625 0
0.125 0.09375 0
0.15625 0.09375 0
0.15625 0.0625 0
0.1875 0.0625 0
0.15625 0.09375 0
0.1875 0.09375 0
0.125 0.09375 0
0.15625 0.09375 0
0.125 0.125 0
0.15625 0.125 0
0.15625 0.09375 0
0.1875 0.09375 0
0.15625 0.125 0
0.1875 0.125 0
0.1875 0.0625 0
0.21875 0.0625 0
0.1875 0.09375 0
0.21875 0.09375 0
0.21875 0.0625 0
0.25 0.0625 0
0.21875 0.09375 0
0.25 0.09375 0
0.1875 0.09375 0
0.21875 0.09375 0
0.1875 0.125 0
0.21875 0.125 0
0.21875 0.09375 0
0.25 0.09375 0
0.21875 0.125 0
0.25 0.125 0
0 0.125 0
0.03125 0.125 0
0 0.15625 0
0.03125 0.15625 0
0.03125 0.125 0
0.0625 0.125 0
0.03125 0.15625 0
0.0625 0.15625 0
0 0.15625 0
0.03125 0.15625 0
0 0.1875 0
0.03125 0.1875 0
0.03125 0.15625 0
0.0625 0.15625 0
0.03125 0.1875 0
0.0625 0.1875 0
0.0625 0.125 0
0.09375 0.125 0
0.0625 0.15625 0
0.09375 0.15625 0
0.09375 0.125 0
0.125 0.125 0
0.09375 0.15625 0
0.125 0.15625 0
0.0625 0.15625 0
0.09375 0.15625 0
0.0625 0.1875 0
0.09375 0.1875 0
0.09375 0.15625 0
0.125 0.15625 0
0.09375 0.1875 0
0.125 0.1875 0
0 0.1875 0
0.03125 0.1875 0
0 0.21875 0
0.03125 0.21875 0
0.03125 0.1875 0
0.0625 0.1875 0
0.03125 0.21875 0
0.0625 0.21875 0
0 0.21875 0
0.03125 0.21875 0
0 0.25 0
0.03125 0.25 0
0.03125 0.21875 0
0.0625 0.21875 0
0.03125 0.25 0
0.0625 0.25 0
0.0625 0.1875 0
0.09375 0.1875 0
0.0625 0.21875 0
0.09375 0.21875 0
0.09375 0.1875 0
0.125 0.1875 0
0.09375 0.21875 0
0.125 0.21875 0
0.0625 0.21875 0
0.09375 0.21875 0
0.0625 0.25 0
0.09375 0.25 0
0.09375 0.21875 0
0.125 0.21875 0
0.09375 0.25 0
0.125 0.25 0
0.125 0.125 0
0.15625 0.125 0
0.125 0.15625 0
0.15625 0.15625 0
0.15625 0.125 0
0.1875 0.125 0
0.15625 0.15625 0
0.1875 0.15625 0
0.125 0.15625 0
0.15625 0.15625 0
0.125 0.1875 0
0.15625 0.1875 0
0.15625 0.15625 0
0.1875 0.15625 0
0.15625 0.1875 0
0.1875 0.1875 0
0.1875 0.125 0
0.21875 0.125 0
0.1875 0.15625 0
0.21875 0.15625 0
0.21875 0.125 0
0.25 0.125 0
0.21875 0.15625 0
0.25 0.15625 0
0.1875 0.15625 0
0.21875 0.15625 0
0.1875 0.1875 0
0.21875 0.1875 0
0.21875 0.15625 0
0.25 0.15625 0
0.21875 0.1875 0
0.25 0.1875 0
0.125 0.1875 0
0.15625 0.1875 0
0.125 0.21875 0
0.15625 0.21875 0
0.15625 0.1875 0
0.1875 0.1875 0
0.15625 0.21875 0
0.1875 0.21875 0
0.125 0.21875 0
0.15625 0.21875 0
0.125 0.25 0
0.15625 0.25 0
0.15625 0.21875 0
0.1875 0.21875 0
0.15625 0.25 0
0.1875 0.25 0
0.1875 0.1875 0
0.21875 0.1875 0
0.1875 0.21875 0
0.21875 0.21875 0
0.21875 0.1875 0
0.25 0.1875 0
0.21875 0.21875 0
0.25 0.21875 0
0.1875 0.21875 0
0.21875 0.21875 0
0.1875 0.25 0
0.21875 0.25 0
0.21875 0.21875 0
0.25 0.21875 0
0.21875 0.25 0
0.25 0.25 0
0.25 0 0
0.28125 0 0
0.25 0.03125 0
0.28125 0.03125 0
0.28125 0 0
0.3125 0 0
0.28125 0.03125 0
0.3125 0.03125 0
0.25 0.03125 0
0.28125 0.03125 0
0.25 0.0625 0
0.28125 0.0625 0
0.28125 0.03125 0
0.3125 0.03125 0
0.28125 0.0625 0
0.3125 0.0625 0
0.3125 0 0
0.34375 0 0
0.3125 0.03125 0
0.34375 0.03125 0
0.34375 0 0
0.375 0 0
0.34375 0.03125 0
0.375 0.03125 0
0.3125 0.03125 0
0.34375 0.03125 0
0.3125 0.0625 0
0.34375 0.0625 0
0.34375 0.03125 0
0.375 0.03125 0
0.34375 0.0625 0
0.375 0.0625 0
0.25 0.0625 0
0.28125 0.0625 0
0.25 0.09375 0
0.28125 0.09375 0
0.28125 0.0625 0
0.3125 0.0625 0
0.28125 0.09375 0
0.3125 0.09375 0
0.25 0.09375 0
0.28125 0.09375 0
0.25 0.125 0
0.28125 0.125 0
0.28125 0.09375 0
0.3125 0.09375 0
0.28125 0.125 0
0.3125 0.125 0
0.3125 0.0625 0
0.34375 0.0625 0
0.3125 0.09375 0
0.34375 0.09375 0
0.34375 0.0625 0
0.375 0.0625 0
0.34375 0.09375 0
0.375 0.09375 0
0.3125 0.09375 0
0.34375 0.09375 0
0.3125 0.125 0
0.34375 0.125 0
0.34375 0.09375 0
0.375 0.09375 0
0.34375 0.125 0
0.375 0.125 0
0.375 0 0
0.40625 0 0
0.375 0.03125 0
0.40625 0.03125 0
0.40625 0 0
0.4375 0 0
0.40625 0.03125 0
0.4375 0.03125 0
0.375 0.03125 0
0.40625 0.03125 0
0.375 0.0625 0
0.40625 0.0625 0
0.40625 0.03125 0
0.4375 0.03125 0
0.40625 0.0625 0
0.4375 0.0625 0
0.4375 0 0
0.46875 0 0
0.4375 0.03125 0
0.46875 0.03125 0
0.46875 0 0
0.5 0 0
0.46875 0.03125 0
0.5 0.03125 0
0.4375 0.03125 0
0.46875 0.03125 0
0.4375 0.0625 0
0.46875 0.0625 0
0.46875 0.03125 0
0.5 0.03125 0
0.46875 0.0625 0
0.5 0.0625 0
0.375 0.0625 0
0.40625 0.0625 0
0.375 0.09375 0
0.40625 0.09375 0
0.40625 0.0625 0
0.4375 0.0625 0
0.40625 0.09375 0
0.4375 0.09375 0
0.375 0.09375 0
0.40625 0.09375 0
0.375 0.125 0
0.40625 0.125 0
0.40625 0.09375 0
0.4375 0.09375 0
0.40625 0.125 0
0.4375 0.125 0
0.4375 0.0625 0
0.46875 0.0625 0
0.4375 0.09375 0
0.46875 0.09375 0
0.46875 0.0625 0
0.5 0.0625 0
0.46875 0.09375 0
0.5 0.09375 0
0.4375 0.09375 0
0.46875 0.09375 0
0.4375 0.125 0
0.46875 0.125 0
0.46875 0.09375 0
0.5 0.09375 0
0.46875 0.125 0
0.5 0.125 0
0.25 0.125 0
0.28125 0.125 0
0.25 0.15625 0
0.28125 0.15625 0
0.28125 0.125 0
0.3125 0.125 0
0.28125 0.15625 0
0.3125 0.15625 0
0.25 0.15625 0
0.28125 0.15625 0
0.25 0.1875 0
0.28125 0.1875 0
0.28125 0.15625 0
0.3125 0.15625 0
0.28125 0.1875 0
0.3125 0.1875 0
0.3125 0.125 0
0.34375 0.125 0
0.3125 0.15625 0
0.34375 0.15625 0
0.34375 0.125 0
0.375 0.125 0
0.34375 0.15625 0
0.375 0.15625 0
0.3125 0.15625 0
0.34375 0.15625 0
0.3125 0.1875 0
0.34375 0.1875 0
0.34375 0.15625 0
0.375 0.15625 0
0.34375 0.1875 0
0.375 0.1875 0
0.25 0.1875 0
0.28125 0.1875 0
0.25 0.21875 0
0.28125 0.21875 0
0.28125 0.1875 0
0.3125 0.1875 0
0.28125 0.21875 0
0.3125 0.21875 0
0.25 0.21875 0
0.28125 0.21875 0
0.25 0.25 0
0.28125 0.25 0
0.28125 0.21875 0
0.3125 0.21875 0
0.28125 0.25 0
0.3125 0.25 0
0.3125 0.1875 0
0.34375 0.1875 0
0.3125 0.21875 0
0.34375 0.21875 0
0.34375 0.1875 0
0.375 0.1875 0
0.34375 0.21875 0
0.375 0.21875 0
0.3125 0.21875 0
0.34375 0.21875 0
0.3125 0.25 0
0.34375 0.25 0
0.34375 0.21875 0
0.375 0.21875 0
0.34375 0.25 0
0.375 0.25 0
0.375 0.125 0
0.40625 0.125 0
0.375 0.15625 0
0.40625 0.15625 0
0.40625 0.125 0
0.4375 0.125 0
0.40625 0.15625 0
0.4375 0.15625 0
0.375 0.15625 0
0.40625 0.15625 0
0.375 0.1875 0
0.40625 0.1875 0
0.40625 0.15625 0
0.4375 0.15625 0
0.40625 0.1875 0
0.4375 0.1875 0
0.4375 0.125 0
0.46875 0.125 0
0.4375 0.15625 0
0.46875 0.15625 0
0.46875 0.125 0
0.5 0.125 0
0.46875 0.15625 0
0.5 0.15625 0
0.4375 0.15625 0
0.46875 0.15625 0
0.4375 0.1875 0
0.46875 0.1875 0
0.46875 0.15625 0
0.5 0.15625 0
0.46875 0.1875 0
0.5 0.1875 0
0.375 0.1875 0
0.40625 0.1875 0
0.375 0.21875 0
0.40625 0.21875 0
0.40625 0.1875 0
0.4375 0.1875 0
0.40625 0.21875 0
0.4375 0.21875 0
0.375 0.21875 0
0.40625 0.21875 0
0.375 0.25 0
0.40625 0.25 0
0.40625 0.21875 0
0.4375 0.21875 0
0.40625 0.25 0
0.4375 0.25 0
0.4375 0.1875 0
0.46875 0.1875 0
0.4375 0.21875 0
0.46875 0.21875 0
0.46875 0.1875 0
0.5 0.1875 0
0.46875 0.21875 0
0.5 0.21875 0
0.4375 0.21875 0
0.46875 0.21875 0
0.4375 0.25 0
0.46875 0.25 0
0.46875 0.21875 0
0.5 0.21875 0
0.46875 0.25 0
0.5 0.25 0
0 0.25 0
0.03125 0.25 0
0 0.28125 0
0.03125 0.28125 0
0.03125 0.25 0
0.0625 0.25 0
0.03125 0.28125 0
0.0625 0.28125 0
0 0.28125 0
0.03125 0.28125 0
0 0.3125 0
0.03125 0.3125 0
0.03125 0.28125 0
0.0625 0.28125 0
0.03125 0.3125 0
0.0625 0.3125 0
0.0625 0.25 0
0.09375 0.25 0
0.0625 0.28125 0
0.09375 0.28125 0
0.09375 0.25 0
0.125 0.25 0
0.09375 0.28125 0
0.125 0.28125 0
0.0625 0.28125 0
0.09375 0.28125 0
0.0625 0.3125 0
0.09375 0.3125 0
0.09375 0.28125 0
0.125 0.28125 0
0.09375 0.3125 0
0.125 0.3125 0
0 0.3125 0
0.03125 0.3125 0
0 0.34375 0
0.03125 0.34375 0
0.03125 0.3125 0
0.0625 0.3125 0
0.03125 0.34375 0
0.0625 0.34375 0
0 0.34375 0
0.03125 0.34375 0
0 0.375 0
0.03125 0.375 0
0.03125 0.34375 0
0.0625 0.34375 0
0.03125 0.375 0
0.0625 0.375 0
0.0625 0.3125 0
0.09375 0.3125 0
0.0625 0.34375 0
0.09375 0.34375 0
0.09375 0.3125 0
0.125 0.3125 0
0.09375 0.34375 0
0.125 0.34375 0
0.0625 0.34375 0
0.09375 0.34375 0
0.0625 0.375 0
0.09375 0.375 0
0.09375 0.34375 0
0.125 0.34375 0
0.09375 0.375 0
0.125 0.375 0
0.125 0.25 0
0.15625 0.25 0
0.125 0.28125 0
0.15625 0.28125 0
0.15625 0.25 0
0.1875 0.25 0
0.15625 0.28125 0
0.1875 0.28125 0
0.125 0.28125 0
0.15625 0.28125 0
0.125 0.3125 0
0.15625 0.3125 0
0.15625 0.28125 0
0.1875 0.28125 0
0.15625 0.3125 0
0.1875 0.3125 0
0.1875 0.25 0
0.21875 0.25 0
0.1875 0.28125 0
0.21875 0.28125 0
0.21875 0.25 0
0.25 0.25 0
0.21875 0.28125 0
0.25 0.28125 0
0.1875 0.28125 0
0.21875 0.28125 0
0.1875 0.3125 0
0.21875 0.3125 0
0.21875 0.28125 0
0.25 0.28125 0
0.21875 0.3125 0
0.25 0.3125 0
0.125 0.3125 0
0.15625 0.3125 0
0.125 0.34375 0
0.15625 0.34375 0
0.15625 0.3125 0
0.1875 0.3125 0
0.15625 0.34375 0
0.1875 0.34375 0
0.125 0.34375 0
[...]
POINT_DATA 4096
SCALARS flux double 1
LOOKUP_TABLE default
1 1 1 0.999419033527374 1 1 0.999419033527374 0.999513804912567 1 0.999419033527374 1 1.00095736980438 0.999419033527374 0.999513804912567 1.00095736980438 1.00003659725189 1 1 0.999513804912567 0.999963700771332 1 1 0.999963700771332 0.999929547309875 0.999513804912567 0.999963700771332 1.00003659725189 0.999946534633636 0.999963700771332 0.999929547309875 0.999946534633636 0.999939203262329 1 1.00095736980438 1 0.998747169971466 1.00095736980438 1.00003659725189 0.998747169971466 1.000563621521 1 0.998747169971466 1 1.00126278400421 0.998747169971466 1.000563621521 1.00126278400421 0.999074161052704 1.00003659725189 0.999946534633636 1.000563621521 0.999674916267395 0.999946534633636 0.999939203262329 0.999674916267395 0.999873638153076 1.000563621521 0.999674916267395 0.999074161052704 1.00122821331024 0.999674916267395 0.999873638153076 1.00122821331024 0.999426960945129 1 1 0.999929547309875 0.999978721141815 1 1 0.999978721141815 1.00003981590271 0.999929547309875 0.999978721141815 0.999939203262329 1.00030422210693 0.999978721141815 1.00003981590271 1.00030422210693 0.99971878528595 1 1 1.00003981590271 0.99994307756424 1 1 0.99994307756424 1.0000467300415 1.00003981590271 0.99994307756424 0.99971878528595 1.00018727779388 0.99994307756424 1.0000467300415 1.00018727779388 1.00008833408356 0.999939203262329 1.00030422210693 0.999873638153076 0.999967873096466 1.00030422210693 0.99971878528595 0.999967873096466 1.00018286705017 0.999873638153076 0.999967873096466 0.999426960945129 0.999905526638031 0.999967873096466 1.00018286705017 0.999905526638031 1.00003135204315 0.99971878528595 1.00018727779388 1.00018286705017 0.999676644802094 1.00018727779388 1.00008833408356 0.999676644802094 1.00032377243042 1.00018286705017 0.999676644802094 1.00003135204315 1.00013613700867 0.999676644802094 1.00032377243042 1.00013613700867 0.999608993530273 1 1.00126278400421 1 0.998691201210022 1.00126278400421 0.999074161052704 0.998691201210022 1.00092947483063 1 0.998691201210022 1 1.00131976604462 0.998691201210022 1.00092947483063 1.00131976604462 0.998906493186951 0.999074161052704 1.00122821331024 1.00092947483063 0.998718559741974 1.00122821331024 0.999426960945129 0.998718559741974 1.0013655424118 1.00092947483063 0.998718559741974 0.998906493186951 1.00108861923218 0.998718559741974 1.0013655424118 1.00108861923218 0.99860805273056 1 1.00131976604462 1 0.998952507972717 1.00131976604462 0.998906493186951 0.998952507972717 1.00119137763977 1 0.998952507972717 1 1.00053763389587 0.998952507972717 1.00119137763977 1.00053763389587 0.998924255371094 0.998906493186951 1.00108861923218 1.00119137763977 0.998857319355011 1.00108861923218 0.99860805273056 0.998857319355011 1.00139248371124 1.00119137763977 0.998857319355011 0.998924255371094 1.00113952159882 0.998857319355011 1.00139248371124 1.00113952159882 0.998619496822357 0.999426960945129 0.999905526638031 1.0013655424118 0.999273717403412 0.999905526638031 1.00003135204315 0.999273717403412 1.00002348423004 1.0013655424118 0.999273717403412 0.99860805273056 1.00155937671661 0.999273717403412 1.00002348423004 1.00155937671661 0.998906672000885 1.00003135204315 1.00013613700867 1.00002348423004 0.999953985214233 1.00013613700867 0.999608993530273 0.999953985214233 1.00011467933655 1.00002348423004 0.999953985214233 0.998906672000885 1.00002944469452 0.999953985214233 1.00011467933655 1.00002944469452 1.00006759166718 0.99860805273056 1.00155937671661 1.00139248371124 0.998399198055267 1.00155937671661 0.998906672000885 0.998399198055267 1.001748919487 1.00139248371124 0.998399198055267 0.998619496822357 1.00143599510193 0.998399198055267 1.001748919487 1.00143599510193 0.998309731483459 0.998906672000885 1.00002944469452 1.001748919487 0.998812556266785 1.00002944469452 1.00006759166718 0.998812556266785 1.00007057189941 1.001748919487 0.998812556266785 0.998309731483459 1.00201773643494 0.998812556266785 1.00007057189941 1.00201773643494 0.998406410217285 1 1 1.0000467300415 0.99984085559845 1 1 0.99984085559845 1.00018453598022 1.0000467300415 0.99984085559845 1.00008833408356 0.999715566635132 0.99984085559845 1.00018453598022 0.999715566635132 1.00015807151794 1 1 1.00018453598022 0.999973237514496 1 1 0.999973237514496 0.999837219715118 1.00018453598022 0.999973237514496 1.00015807151794 1.0000147819519 0.999973237514496 0.999837219715118 1.0000147819519 0.999856412410736 1.00008833408356 0.999715566635132 1.00032377243042 1.00013601779938 0.999715566635132 1.00015807151794 1.00013601779938 0.99971216917038 1.00032377243042 1.00013601779938 0.999608993530273 1.00016009807587 1.00013601779938 0.99971216917038 1.00016009807587 1.00024259090424 1.00015807151794 1.0000147819519 0.99971216917038 1.00012958049774 1.0000147819519 0.999856412410736 1.00012958049774 1.00003528594971 0.99971216917038 1.00012958049774 1.00024259090424 0.999765872955322 1.00012958049774 1.00003528594971 0.999765872955322 1.0000741481781 1 1 0.999837219715118 1.00023186206818 1 1 1.00023186206818 0.99988853931427 0.999837219715118 1.00023186206818 0.999856412410736 1.00017952919006 1.00023186206818 0.99988853931427 1.00017952919006 0.999951481819153 1 1 0.99988853931427 0.999901950359344 1 1 0.999901950359344 1.00020551681519 0.99988853931427 0.999901950359344 0.999951481819153 0.999852895736694 0.999901950359344 1.00020551681519 0.999852895736694 1.00018084049225 0.999856412410736 1.00017952919006 1.00003528594971 0.999878942966461 1.00017952919006 0.999951481819153 0.999878942966461 1.0000536441803 1.00003528594971 0.999878942966461 1.0000741481781 1.00002765655518 0.999878942966461 1.0000536441803 1.00002765655518 0.999914288520813 0.999951481819153 0.999852895736694 1.0000536441803 1.00002944469452 0.999852895736694 1.00018084049225 1.00002944469452 1.0000296831131 1.0000536441803 1.00002944469452 0.999914288520813 1.00014710426331 1.00002944469452 1.0000296831131 1.00014710426331 0.9998978972435 0.999608993530273 1.00016009807587 1.00011467933655 0.999627768993378 1.00016009807587 1.00024259090424 0.999627768993378 1.00006198883057 1.00011467933655 0.999627768993378 1.00006759166718 1.00020956993103 0.999627768993378 1.00006198883057 1.00020956993103 0.999591708183289 1.00024259090424 0.999765872955322 1.00006198883057 1.00029504299164 0.999765872955322 1.0000741481781 1.00029504299164 0.999676823616028 1.00006198883057 1.00029504299164 0.999591708183289 0.999902904033661 1.00029504299164 0.999676823616028 0.999902904033661 1.00050723552704 1.00006759166718 1.00020956993103 1.00007057189941 0.99990713596344 1.00020956993103 0.999591708183289 0.99990713596344 1.00028741359711 1.00007057189941 0.99990713596344 0.998406410217285 1.00031924247742 0.99990713596344 1.00028741359711 1.00031924247742 1.00008130073547 0.999591708183289 0.999902904033661 1.00028741359711 0.999822080135345 0.999902904033661 1.00050723552704 0.999822080135345 0.999650716781616 1.00028741359711 0.999822080135345 1.00008130073547 1.00007128715515 0.999822080135345 0.999650716781616 1.00007128715515 0.999841213226318 1.0000741481781 1.00002765655518 0.999676823616028 1.00017178058624 1.00002765655518 0.999914288520813 1.00017178058624 1.00015938282013 0.999676823616028 1.00017178058624 1.00050723552704 0.99959522485733 1.00017178058624 1.00015938282013 0.99959522485733 0.999924600124359 0.999914288520813 1.00014710426331 1.00015938282013 0.999589204788208 1.00014710426331 0.9998978972435 0.999589204788208 1.0001255273819 1.00015938282013 0.999589204788208 0.999924600124359 1.00043976306915 0.999589204788208 1.0001255273819 1.00043976306915 0.999783515930176 1.00050723552704 0.99959522485733 0.999650716781616 1.00047254562378 0.99959522485733 0.999924600124359 1.00047254562378 0.999782562255859 0.999650716781616 1.00047254562378 0.999841213226318 0.999829053878784 1.00047254562378 0.999782562255859 0.999829053878784 1.00050675868988 0.999924600124359 1.00043976306915 0.999782562255859 0.99993759393692 1.00043976306915 0.999783515930176 0.99993759393692 1.0003250837326 0.999782562255859 0.99993759393692 1.00050675868988 0.999469757080078 0.99993759393692 1.0003250837326 0.999469757080078 0.999893128871918 1 1.00053763389587 1 1.00013911724091 1.00053763389587 0.998924255371094 1.00013911724091 1.00058400630951 1 1.00013911724091 1 0.999277651309967 1.00013911724091 1.00058400630951 0.999277651309967 1.00008130073547 0.998924255371094 1.00113952159882 1.00058400630951 0.999170660972595 1.00113952159882 0.998619496822357 0.999170660972595 1.00127220153809 1.00058400630951 0.999170660972595 1.00008130073547 1.00018215179443 0.999170660972595 1.00127220153809 1.00018215179443 0.999283492565155 1 0.999277651309967 1 1.00095868110657 0.999277651309967 1.00008130073547 1.00095868110657 0.999418556690216 1 1.00095868110657 1 0.999290466308594 1.00095868110657 0.999418556690216 0.999290466308594 1.00077450275421 1.00008130073547 1.00018215179443 0.999418556690216 1.00040352344513 1.00018215179443 0.999283492565155 1.00040352344513 0.999847710132599 0.999418556690216 1.00040352344513 1.00077450275421 0.999355018138885 1.00040352344513 0.999847710132599 0.999355018138885 1.00077629089355 0.998619496822357 1.00143599510193 1.00127220153809 0.998538553714752 1.00143599510193 0.998309731483459 0.998538553714752 1.00155878067017 1.00127220153809 0.998538553714752 0.999283492565155 1.00134944915771 0.998538553714752 1.00155878067017 1.00134944915771 0.998388230800629 0.998309731483459 1.00201773643494 1.00155878067017 0.997985780239105 1.00201773643494 0.998406410217285 0.997985780239105 1.00235962867737 1.00155878067017 0.997985780239105 0.998388230800629 1.00176560878754 0.997985780239105 1.00235962867737 1.00176560878754 0.997857511043549 0.999283492565155 1.00134944915771 0.999847710132599 0.999391853809357 1.00134944915771 0.998388230800629 0.999391853809357 1.00128448009491 0.999847710132599 0.999391853809357 1.00077629089355 0.999505579471588 0.999391853809357 1.00128448009491 0.999505579471588 0.99977719783783 0.998388230800629 1.00176560878754 1.00128448009491 0.998412072658539 1.00176560878754 0.997857511043549 0.998412072658539 1.00190460681915 1.00128448009491 0.998412072658539 0.99977719783783 1.0010575056076 0.998412072658539 1.00190460681915 1.0010575056076 0.998154103755951 1 0.999290466308594 1 0.999993860721588 0.999290466308594 1.00077450275421 0.999993860721588 0.999352276325226 1 0.999993860721588 1 1.0007780790329 0.999993860721588 0.999352276325226 1.0007780790329 1.00016784667969 1.00077450275421 0.999355018138885 0.999352276325226 1.00067889690399 0.999355018138885 1.00077629089355 1.00067889690399 0.999077081680298 0.999352276325226 1.00067889690399 1.00016784667969 0.999555647373199 1.00067889690399 0.999077081680298 0.999555647373199 1.00056755542755 1 1.0007780790329 1 0.999103546142578 1.0007780790329 1.00016784667969 0.999103546142578 1.00052428245544 1 0.999103546142578 1 1.00007283687592 0.999103546142578 1.00052428245544 1.00007283687592 0.999086260795593 1.00016784667969 0.999555647373199 1.00052428245544 0.999849200248718 0.999555647373199 1.00056755542755 0.999849200248718 1.00006330013275 1.00052428245544 0.999849200248718 0.999086260795593 1.00079751014709 0.999849200248718 1.00006330013275 1.00079751014709 0.999462008476257 1.00077629089355 0.999505579471588 0.999077081680298 1.00111865997314 0.999505579471588 0.99977719783783 1.00111865997314 0.999235272407532 0.999077081680298 1.00111865997314 1.00056755542755 0.999101102352142 1.00111865997314 0.999235272407532 0.999101102352142 1.00108313560486 0.99977719783783 1.0010575056076 0.999235272407532 0.999877989292145 1.0010575056076 0.998154103755951 0.999877989292145 1.00108873844147 0.999235272407532 0.999877989292145 1.00108313560486 0.999113082885742 0.999877989292145 1.00108873844147 0.999113082885742 1.00039350986481 1.00056755542755 0.999101102352142 1.00006330013275 1.00024104118347 0.999101102352142 1.00108313560486 1.00024104118347 0.999151110649109 1.00006330013275 1.00024104118347 0.999462008476257 1.00013720989227 1.00024104118347 0.999151110649109 1.00013720989227 1.00044047832489 1.00108313560486 0.999113082885742 0.999151110649109 1.00148868560791 0.999113082885742 1.00039350986481 1.00148868560791 0.998404026031494 0.999151110649109 1.00148868560791 1.00044047832489 0.998944163322449 1.00148868560791 0.998404026031494 0.998944163322449 1.00130069255829 0.998406410217285 1.00031924247742 1.00235962867737 0.99831759929657 1.00031924247742 1.00008130073547 0.99831759929657 1.00037384033203 1.00235962867737 0.99831759929657 0.997857511043549 1.00246608257294 0.99831759929657 1.00037384033203 1.00246608257294 0.997786819934845 1.00008130073547 1.00007128715515 1.00037384033203 0.999888718128204 1.00007128715515 0.999841213226318 0.999888718128204 1.00047171115875 1.00037384033203 0.999888718128204 0.997786819934845 1.00112760066986 0.999888718128204 1.00047171115875 1.00112760066986 0.999684929847717 0.997857511043549 1.00246608257294 1.00190460681915 0.997412085533142 1.00246608257294 0.997786819934845 0.997412085533142 1.00314569473267 1.00190460681915 0.997412085533142 0.998154103755951 1.0025726556778 0.997412085533142 1.00314569473267 1.0025726556778 0.997039675712585 0.997786819934845 1.00112760066986 1.00314569473267 0.997194349765778 1.00112760066986 0.999684929847717 0.997194349765778 1.00133121013641 1.00314569473267 0.997194349765778 0.997039675712585 1.00324106216431 0.997194349765778 1.00133121013641 1.00324106216431 0.996769368648529 0.999841213226318 0.999829053878784 1.00047171115875 0.999945104122162 0.999829053878784 1.00050675868988 0.999945104122162 0.999293148517609 1.00047171115875 0.999945104122162 0.999684929847717 1.00012803077698 0.999945104122162 0.999293148517609 1.00012803077698 1.00037968158722 1.00050675868988 0.999469757080078 0.999293148517609 1.00071156024933 0.999469757080078 0.999893128871918 1.00071156024933 0.99985533952713 0.999293148517609 1.00071156024933 1.00037968158722 0.999576210975647 1.00071156024933 0.99985533952713 0.999576210975647 1.00051355361938 0.999684929847717 1.00012803077698 1.00133121013641 0.999752342700958 1.00012803077698 1.00037968158722 0.999752342700958 1.00057911872864 1.00133121013641 0.999752342700958 0.996769368648529 1.00231921672821 0.999752342700958 1.00057911872864 1.00231921672821 0.99903416633606 1.00037968158722 0.999576210975647 1.00057911872864 1.00022947788239 0.999576210975647 1.00051355361938 1.00022947788239 0.998903751373291 1.00057911872864 1.00022947788239 0.99903416633606 1.00036549568176 1.00022947788239 0.998903751373291 1.00036549568176 1.00127351284027 0.998154103755951 1.0025726556778 1.00108873844147 0.998153924942017 1.0025726556778 0.997039675712585 0.998153924942017 1.00245678424835 1.00108873844147 0.998153924942017 1.00039350986481 1.00026178359985 0.998153924942017 1.00245678424835 1.00026178359985 0.998494327068329 0.997039675712585 1.00324106216431 1.00245678424835 0.996818602085114 1.00324106216431 0.996769368648529 0.996818602085114 1.0039871931076 1.00245678424835 0.996818602085114 0.998494327068329 1.00288319587708 0.996818602085114 1.0039871931076 1.00288319587708 0.996247351169586 1.00039350986481 1.00026178359985 0.998404026031494 1.00110077857971 1.00026178359985 0.998494327068329 1.00110077857971 0.99997752904892 0.998404026031494 1.00110077857971 1.00130069255829 0.998742759227753 1.00110077857971 0.99997752904892 0.998742759227753 1.00171566009521 0.998494327068329 1.00288319587708 0.99997752904892 0.998765826225281 1.00288319587708 0.996247351169586 0.998765826225281 1.00243723392487 0.99997752904892 0.998765826225281 1.00171566009521 0.998196303844452 0.998765826225281 1.00243723392487 0.998196303844452 0.99994170665741 0.996769368648529 1.00231921672821 1.0039871931076 0.995810210704803 1.00231921672821 0.99903416633606 0.995810210704803 1.00298666954041 1.0039871931076 0.995810210704803 0.996247351169586 1.00430393218994 0.995810210704803 1.00298666954041 1.00430393218994 0.995075106620789 0.99903416633606 1.00036549568176 1.00298666954041 0.998893141746521 1.00036549568176 1.00127351284027 0.998893141746521 1.00081992149353 1.00298666954041 0.998893141746521 0.995075106620789 1.00529086589813 0.998893141746521 1.00081992149353 1.00529086589813 0.99566239118576 0.996247351169586 1.00430393218994 1.00243723392487 0.996070265769958 1.00430393218994 0.995075106620789 0.996070265769958 1.00631070137024 1.00243723392487 0.996070265769958 0.99994170665741 1.00379681587219 0.996070265769958 1.00631070137024 1.00379681587219 0.991639971733093 0.995075106620789 1.00529086589813 1.00631070137024 0.990435242652893 1.00529086589813 0.99566239118576 0.990435242652893 1.01272332668304 1.00631070137024 0.990435242652893 0.991639971733093 1.01490533351898 0.990435242652893 1.01272332668304 1.01490533351898 0.972113728523254 1 1 1.00020551681519 0.999903738498688 1 1 0.999903738498688 0.999956250190735 1.00020551681519 0.999903738498688 1.00018084049225 0.999950706958771 0.999903738498688 0.999956250190735 0.999950706958771 0.999760389328003 1 1 0.999956250190735 1.00036132335663 1 1 1.00036132335663 1.00081896781921 0.999956250190735 1.00036132335663 0.999760389328003 0.999875128269196 1.00036132335663 1.00081896781921 0.999875128269196 0.998877465724945 1.00018084049225 0.999950706958771 1.0000296831131 0.999961853027344 0.999950706958771 0.999760389328003 0.999961853027344 0.999940156936646 1.0000296831131 0.999961853027344 0.9998978972435 0.99995219707489 0.999961853027344 0.999940156936646 0.99995219707489 1.00018537044525 0.999760389328003 0.999875128269196 0.999940156936646 1.00070297718048 0.999875128269196 0.998877465724945 1.00070297718048 1.00215661525726 0.999940156936646 1.00070297718048 1.00018537044525 0.99887603521347 1.00070297718048 1.00215661525726 0.99887603521347 0.996500730514526 1 1 1.00081896781921 1.0023136138916 1 1 1.0023136138916 1.00497686862946 1.00081896781921 1.0023136138916 0.998877465724945 0.996878266334534 1.0023136138916 1.00497686862946 0.996878266334534 0.995436131954193 1 1 1.00497686862946 1.00685143470764 1 1 1.00685143470764 1.00617754459381 1.00497686862946 1.00685143470764 0.995436131954193 0.995199024677277 1.00685143470764 1.00617754459381 0.995199024677277 0.995737850666046 0.998877465724945 0.996878266334534 1.00215661525726 1.003910779953 0.996878266334534 0.995436131954193 1.003910779953 1.0055718421936 1.00215661525726 1.003910779953 0.996500730514526 0.994435250759125 1.003910779953 1.0055718421936 0.994435250759125 0.993336319923401 0.995436131954193 0.995199024677277 1.0055718421936 1.0062597990036 0.995199024677277 0.995737850666046 1.0062597990036 1.00554728507996 1.0055718421936 1.0062597990036 0.993336319923401 0.993493795394897 1.0062597990036 1.00554728507996 0.993493795394897 0.994593799114227 0.9998978972435 0.99995219707489 1.0001255273819 1.00028502941132 0.99995219707489 1.00018537044525 1.00028502941132 1 1.0001255273819 1.00028502941132 0.999783515930176 0.999698281288147 1.00028502941132 1 0.999698281288147 0.999482810497284 1.00018537044525 0.99887603521347 1 1.00159180164337 0.99887603521347 0.996500730514526 1.00159180164337 1.00468325614929 1 1.00159180164337 0.999482810497284 0.997474014759064 1.00159180164337 1.00468325614929 0.997474014759064 0.994301795959473 0.999783515930176 0.999698281288147 1.0003250837326 0.999890506267548 0.999698281288147 0.999482810497284 0.999890506267548 1.00124621391296 1.0003250837326 0.999890506267548 0.999893128871918 1.00050187110901 0.999890506267548 1.00124621391296 1.00050187110901 0.997562944889069 0.999482810497284 0.997474014759064 1.00124621391296 1.00427353382111 0.997474014759064 0.994301795959473 1.00427353382111 1.00713896751404 1.00124621391296 1.00427353382111 0.997562944889069 0.993493318557739 1.00427353382111 1.00713896751404 0.993493318557739 0.990784049034119 0.996500730514526 0.994435250759125 1.00468325614929 1.00736999511719 0.994435250759125 0.99333631992