# vtk DataFile Version 3.0
#This file was generated by the deal.II library on 2015/7/1 at 13:26:25
ASCII
DATASET UNSTRUCTURED_GRID

POINTS 4096 double
0 0 0
0.03125 0 0
0 0.03125 0
0.03125 0.03125 0
0.03125 0 0
0.0625 0 0
0.03125 0.03125 0
0.0625 0.03125 0
0 0.03125 0
0.03125 0.03125 0
0 0.0625 0
0.03125 0.0625 0
0.03125 0.03125 0
0.0625 0.03125 0
0.03125 0.0625 0
0.0625 0.0625 0
0.0625 0 0
0.09375 0 0
0.0625 0.03125 0
0.09375 0.03125 0
0.09375 0 0
0.125 0 0
0.09375 0.03125 0
0.125 0.03125 0
0.0625 0.03125 0
0.09375 0.03125 0
0.0625 0.0625 0
0.09375 0.0625 0
0.09375 0.03125 0
0.125 0.03125 0
0.09375 0.0625 0
0.125 0.0625 0
0 0.0625 0
0.03125 0.0625 0
0 0.09375 0
0.03125 0.09375 0
0.03125 0.0625 0
0.0625 0.0625 0
0.03125 0.09375 0
0.0625 0.09375 0
0 0.09375 0
0.03125 0.09375 0
0 0.125 0
0.03125 0.125 0
0.03125 0.09375 0
0.0625 0.09375 0
0.03125 0.125 0
0.0625 0.125 0
0.0625 0.0625 0
0.09375 0.0625 0
0.0625 0.09375 0
0.09375 0.09375 0
0.09375 0.0625 0
0.125 0.0625 0
0.09375 0.09375 0
0.125 0.09375 0
0.0625 0.09375 0
0.09375 0.09375 0
0.0625 0.125 0
0.09375 0.125 0
0.09375 0.09375 0
0.125 0.09375 0
0.09375 0.125 0
0.125 0.125 0
0.125 0 0
0.15625 0 0
0.125 0.03125 0
0.15625 0.03125 0
0.15625 0 0
0.1875 0 0
0.15625 0.03125 0
0.1875 0.03125 0
0.125 0.03125 0
0.15625 0.03125 0
0.125 0.0625 0
0.15625 0.0625 0
0.15625 0.03125 0
0.1875 0.03125 0
0.15625 0.0625 0
0.1875 0.0625 0
0.1875 0 0
0.21875 0 0
0.1875 0.03125 0
0.21875 0.03125 0
0.21875 0 0
0.25 0 0
0.21875 0.03125 0
0.25 0.03125 0
0.1875 0.03125 0
0.21875 0.03125 0
0.1875 0.0625 0
0.21875 0.0625 0
0.21875 0.03125 0
0.25 0.03125 0
0.21875 0.0625 0
0.25 0.0625 0
0.125 0.0625 0
0.15625 0.0625 0
0.125 0.09375 0
0.15625 0.09375 0
0.15625 0.0625 0
0.1875 0.0625 0
0.15625 0.09375 0
0.1875 0.09375 0
0.125 0.09375 0
0.15625 0.09375 0
0.125 0.125 0
0.15625 0.125 0
0.15625 0.09375 0
0.1875 0.09375 0
0.15625 0.125 0
0.1875 0.125 0
0.1875 0.0625 0
0.21875 0.0625 0
0.1875 0.09375 0
0.21875 0.09375 0
0.21875 0.0625 0
0.25 0.0625 0
0.21875 0.09375 0
0.25 0.09375 0
0.1875 0.09375 0
0.21875 0.09375 0
0.1875 0.125 0
0.21875 0.125 0
0.21875 0.09375 0
0.25 0.09375 0
0.21875 0.125 0
0.25 0.125 0
0 0.125 0
0.03125 0.125 0
0 0.15625 0
0.03125 0.15625 0
0.03125 0.125 0
0.0625 0.125 0
0.03125 0.15625 0
0.0625 0.15625 0
0 0.15625 0
0.03125 0.15625 0
0 0.1875 0
0.03125 0.1875 0
0.03125 0.15625 0
0.0625 0.15625 0
0.03125 0.1875 0
0.0625 0.1875 0
0.0625 0.125 0
0.09375 0.125 0
0.0625 0.15625 0
0.09375 0.15625 0
0.09375 0.125 0
0.125 0.125 0
0.09375 0.15625 0
0.125 0.15625 0
0.0625 0.15625 0
0.09375 0.15625 0
0.0625 0.1875 0
0.09375 0.1875 0
0.09375 0.15625 0
0.125 0.15625 0
0.09375 0.1875 0
0.125 0.1875 0
0 0.1875 0
0.03125 0.1875 0
0 0.21875 0
0.03125 0.21875 0
0.03125 0.1875 0
0.0625 0.1875 0
0.03125 0.21875 0
0.0625 0.21875 0
0 0.21875 0
0.03125 0.21875 0
0 0.25 0
0.03125 0.25 0
0.03125 0.21875 0
0.0625 0.21875 0
0.03125 0.25 0
0.0625 0.25 0
0.0625 0.1875 0
0.09375 0.1875 0
0.0625 0.21875 0
0.09375 0.21875 0
0.09375 0.1875 0
0.125 0.1875 0
0.09375 0.21875 0
0.125 0.21875 0
0.0625 0.21875 0
0.09375 0.21875 0
0.0625 0.25 0
0.09375 0.25 0
0.09375 0.21875 0
0.125 0.21875 0
0.09375 0.25 0
0.125 0.25 0
0.125 0.125 0
0.15625 0.125 0
0.125 0.15625 0
0.15625 0.15625 0
0.15625 0.125 0
0.1875 0.125 0
0.15625 0.15625 0
0.1875 0.15625 0
0.125 0.15625 0
0.15625 0.15625 0
0.125 0.1875 0
0.15625 0.1875 0
0.15625 0.15625 0
0.1875 0.15625 0
0.15625 0.1875 0
0.1875 0.1875 0
0.1875 0.125 0
0.21875 0.125 0
0.1875 0.15625 0
0.21875 0.15625 0
0.21875 0.125 0
0.25 0.125 0
0.21875 0.15625 0
0.25 0.15625 0
0.1875 0.15625 0
0.21875 0.15625 0
0.1875 0.1875 0
0.21875 0.1875 0
0.21875 0.15625 0
0.25 0.15625 0
0.21875 0.1875 0
0.25 0.1875 0
0.125 0.1875 0
0.15625 0.1875 0
0.125 0.21875 0
0.15625 0.21875 0
0.15625 0.1875 0
0.1875 0.1875 0
0.15625 0.21875 0
0.1875 0.21875 0
0.125 0.21875 0
0.15625 0.21875 0
0.125 0.25 0
0.15625 0.25 0
0.15625 0.21875 0
0.1875 0.21875 0
0.15625 0.25 0
0.1875 0.25 0
0.1875 0.1875 0
0.21875 0.1875 0
0.1875 0.21875 0
0.21875 0.21875 0
0.21875 0.1875 0
0.25 0.1875 0
0.21875 0.21875 0
0.25 0.21875 0
0.1875 0.21875 0
0.21875 0.21875 0
0.1875 0.25 0
0.21875 0.25 0
0.21875 0.21875 0
0.25 0.21875 0
0.21875 0.25 0
0.25 0.25 0
0.25 0 0
0.28125 0 0
0.25 0.03125 0
0.28125 0.03125 0
0.28125 0 0
0.3125 0 0
0.28125 0.03125 0
0.3125 0.03125 0
0.25 0.03125 0
0.28125 0.03125 0
0.25 0.0625 0
0.28125 0.0625 0
0.28125 0.03125 0
0.3125 0.03125 0
0.28125 0.0625 0
0.3125 0.0625 0
0.3125 0 0
0.34375 0 0
0.3125 0.03125 0
0.34375 0.03125 0
0.34375 0 0
0.375 0 0
0.34375 0.03125 0
0.375 0.03125 0
0.3125 0.03125 0
0.34375 0.03125 0
0.3125 0.0625 0
0.34375 0.0625 0
0.34375 0.03125 0
0.375 0.03125 0
0.34375 0.0625 0
0.375 0.0625 0
0.25 0.0625 0
0.28125 0.0625 0
0.25 0.09375 0
0.28125 0.09375 0
0.28125 0.0625 0
0.3125 0.0625 0
0.28125 0.09375 0
0.3125 0.09375 0
0.25 0.09375 0
0.28125 0.09375 0
0.25 0.125 0
0.28125 0.125 0
0.28125 0.09375 0
0.3125 0.09375 0
0.28125 0.125 0
0.3125 0.125 0
0.3125 0.0625 0
0.34375 0.0625 0
0.3125 0.09375 0
0.34375 0.09375 0
0.34375 0.0625 0
0.375 0.0625 0
0.34375 0.09375 0
0.375 0.09375 0
0.3125 0.09375 0
0.34375 0.09375 0
0.3125 0.125 0
0.34375 0.125 0
0.34375 0.09375 0
0.375 0.09375 0
0.34375 0.125 0
0.375 0.125 0
0.375 0 0
0.40625 0 0
0.375 0.03125 0
0.40625 0.03125 0
0.40625 0 0
0.4375 0 0
0.40625 0.03125 0
0.4375 0.03125 0
0.375 0.03125 0
0.40625 0.03125 0
0.375 0.0625 0
0.40625 0.0625 0
0.40625 0.03125 0
0.4375 0.03125 0
0.40625 0.0625 0
0.4375 0.0625 0
0.4375 0 0
0.46875 0 0
0.4375 0.03125 0
0.46875 0.03125 0
0.46875 0 0
0.5 0 0
0.46875 0.03125 0
0.5 0.03125 0
0.4375 0.03125 0
0.46875 0.03125 0
0.4375 0.0625 0
0.46875 0.0625 0
0.46875 0.03125 0
0.5 0.03125 0
0.46875 0.0625 0
0.5 0.0625 0
0.375 0.0625 0
0.40625 0.0625 0
0.375 0.09375 0
0.40625 0.09375 0
0.40625 0.0625 0
0.4375 0.0625 0
0.40625 0.09375 0
0.4375 0.09375 0
0.375 0.09375 0
0.40625 0.09375 0
0.375 0.125 0
0.40625 0.125 0
0.40625 0.09375 0
0.4375 0.09375 0
0.40625 0.125 0
0.4375 0.125 0
0.4375 0.0625 0
0.46875 0.0625 0
0.4375 0.09375 0
0.46875 0.09375 0
0.46875 0.0625 0
0.5 0.0625 0
0.46875 0.09375 0
0.5 0.09375 0
0.4375 0.09375 0
0.46875 0.09375 0
0.4375 0.125 0
0.46875 0.125 0
0.46875 0.09375 0
0.5 0.09375 0
0.46875 0.125 0
0.5 0.125 0
0.25 0.125 0
0.28125 0.125 0
0.25 0.15625 0
0.28125 0.15625 0
0.28125 0.125 0
0.3125 0.125 0
0.28125 0.15625 0
0.3125 0.15625 0
0.25 0.15625 0
0.28125 0.15625 0
0.25 0.1875 0
0.28125 0.1875 0
0.28125 0.15625 0
0.3125 0.15625 0
0.28125 0.1875 0
0.3125 0.1875 0
0.3125 0.125 0
0.34375 0.125 0
0.3125 0.15625 0
0.34375 0.15625 0
0.34375 0.125 0
0.375 0.125 0
0.34375 0.15625 0
0.375 0.15625 0
0.3125 0.15625 0
0.34375 0.15625 0
0.3125 0.1875 0
0.34375 0.1875 0
0.34375 0.15625 0
0.375 0.15625 0
0.34375 0.1875 0
0.375 0.1875 0
0.25 0.1875 0
0.28125 0.1875 0
0.25 0.21875 0
0.28125 0.21875 0
0.28125 0.1875 0
0.3125 0.1875 0
0.28125 0.21875 0
0.3125 0.21875 0
0.25 0.21875 0
0.28125 0.21875 0
0.25 0.25 0
0.28125 0.25 0
0.28125 0.21875 0
0.3125 0.21875 0
0.28125 0.25 0
0.3125 0.25 0
0.3125 0.1875 0
0.34375 0.1875 0
0.3125 0.21875 0
0.34375 0.21875 0
0.34375 0.1875 0
0.375 0.1875 0
0.34375 0.21875 0
0.375 0.21875 0
0.3125 0.21875 0
0.34375 0.21875 0
0.3125 0.25 0
0.34375 0.25 0
0.34375 0.21875 0
0.375 0.21875 0
0.34375 0.25 0
0.375 0.25 0
0.375 0.125 0
0.40625 0.125 0
0.375 0.15625 0
0.40625 0.15625 0
0.40625 0.125 0
0.4375 0.125 0
0.40625 0.15625 0
0.4375 0.15625 0
0.375 0.15625 0
0.40625 0.15625 0
0.375 0.1875 0
0.40625 0.1875 0
0.40625 0.15625 0
0.4375 0.15625 0
0.40625 0.1875 0
0.4375 0.1875 0
0.4375 0.125 0
0.46875 0.125 0
0.4375 0.15625 0
0.46875 0.15625 0
0.46875 0.125 0
0.5 0.125 0
0.46875 0.15625 0
0.5 0.15625 0
0.4375 0.15625 0
0.46875 0.15625 0
0.4375 0.1875 0
0.46875 0.1875 0
0.46875 0.15625 0
0.5 0.15625 0
0.46875 0.1875 0
0.5 0.1875 0
0.375 0.1875 0
0.40625 0.1875 0
0.375 0.21875 0
0.40625 0.21875 0
0.40625 0.1875 0
0.4375 0.1875 0
0.40625 0.21875 0
0.4375 0.21875 0
0.375 0.21875 0
0.40625 0.21875 0
0.375 0.25 0
0.40625 0.25 0
0.40625 0.21875 0
0.4375 0.21875 0
0.40625 0.25 0
0.4375 0.25 0
0.4375 0.1875 0
0.46875 0.1875 0
0.4375 0.21875 0
0.46875 0.21875 0
0.46875 0.1875 0
0.5 0.1875 0
0.46875 0.21875 0
0.5 0.21875 0
0.4375 0.21875 0
0.46875 0.21875 0
0.4375 0.25 0
0.46875 0.25 0
0.46875 0.21875 0
0.5 0.21875 0
0.46875 0.25 0
0.5 0.25 0
0 0.25 0
0.03125 0.25 0
0 0.28125 0
0.03125 0.28125 0
0.03125 0.25 0
0.0625 0.25 0
0.03125 0.28125 0
0.0625 0.28125 0
0 0.28125 0
0.03125 0.28125 0
0 0.3125 0
0.03125 0.3125 0
0.03125 0.28125 0
0.0625 0.28125 0
0.03125 0.3125 0
0.0625 0.3125 0
0.0625 0.25 0
0.09375 0.25 0
0.0625 0.28125 0
0.09375 0.28125 0
0.09375 0.25 0
0.125 0.25 0
0.09375 0.28125 0
0.125 0.28125 0
0.0625 0.28125 0
0.09375 0.28125 0
0.0625 0.3125 0
0.09375 0.3125 0
0.09375 0.28125 0
0.125 0.28125 0
0.09375 0.3125 0
0.125 0.3125 0
0 0.3125 0
0.03125 0.3125 0
0 0.34375 0
0.03125 0.34375 0
0.03125 0.3125 0
0.0625 0.3125 0
0.03125 0.34375 0
0.0625 0.34375 0
0 0.34375 0
0.03125 0.34375 0
0 0.375 0
0.03125 0.375 0
0.03125 0.34375 0
0.0625 0.34375 0
0.03125 0.375 0
0.0625 0.375 0
0.0625 0.3125 0
0.09375 0.3125 0
0.0625 0.34375 0
0.09375 0.34375 0
0.09375 0.3125 0
0.125 0.3125 0
0.09375 0.34375 0
0.125 0.34375 0
0.0625 0.34375 0
0.09375 0.34375 0
0.0625 0.375 0
0.09375 0.375 0
0.09375 0.34375 0
0.125 0.34375 0
0.09375 0.375 0
0.125 0.375 0
0.125 0.25 0
0.15625 0.25 0
0.125 0.28125 0
0.15625 0.28125 0
0.15625 0.25 0
0.1875 0.25 0
0.15625 0.28125 0
0.1875 0.28125 0
0.125 0.28125 0
0.15625 0.28125 0
0.125 0.3125 0
0.15625 0.3125 0
0.15625 0.28125 0
0.1875 0.28125 0
0.15625 0.3125 0
0.1875 0.3125 0
0.1875 0.25 0
0.21875 0.25 0
0.1875 0.28125 0
0.21875 0.28125 0
0.21875 0.25 0
0.25 0.25 0
0.21875 0.28125 0
0.25 0.28125 0
0.1875 0.28125 0
0.21875 0.28125 0
0.1875 0.3125 0
0.21875 0.3125 0
0.21875 0.28125 0
0.25 0.28125 0
0.21875 0.3125 0
0.25 0.3125 0
0.125 0.3125 0
0.15625 0.3125 0
0.125 0.34375 0
0.15625 0.34375 0
0.15625 0.3125 0
0.1875 0.3125 0
0.15625 0.34375 0
0.1875 0.34375 0
0.125 0.34375 0
[...]
POINT_DATA 4096
SCALARS flux double 1
LOOKUP_TABLE default
1 1 1 1 1 1 1 1 1 1 1 1 1 1 1 1 1 1 1 1 1 1 1 1 1 1 1 1 1 1 1 1 1 1 1 1 1 1 1 1 1 1 1 1 1 1 1 1 1 1 1 1 1 1 1 1 1 1 1 1 1 1 1 1 1 1 1 1 1 1 1 1 1 1 1 1 1 1 1 1 1 1 1 1 1 1 1 1 1 1 1 1 1 1 1 1 1 1 1 1 1 1 1 1 1 1 1 1 1 1 1 0.999999940395355 1 1 1 0.999999940395355 1 1 0.999999940395355 0.99999988079071 1 0.999999940395355 0.999999940395355 0.99999988079071 0.999999940395355 0.99999988079071 0.99999988079071 0.999999701976776 1 1 1 1 1 1 1 1 1 1 1 1 1 1 1 1 1 1 1 1 1 1 1 1 1 1 1 1 1 1 1 1 1 1 1 1 1 1 1 1 1 1 1 1 1 1 1 1 1 1 1 1 1 1 1 0.999999940395355 1 1 1 0.999999940395355 1 0.999999940395355 0.999999940395355 0.99999988079071 1 1 1 0.999999940395355 1 0.999999940395355 0.999999940395355 0.99999988079071 1 0.999999940395355 1 0.999999940395355 0.999999940395355 0.99999988079071 0.999999940395355 0.999999761581421 0.999999940395355 0.99999988079071 0.99999988079071 0.999999701976776 0.99999988079071 0.999999701976776 0.999999701976776 0.999999284744263 0.99999988079071 0.999999701976776 0.999999761581421 0.999999344348907 0.999999701976776 0.999999284744263 0.999999344348907 0.999998390674591 1 0.999999940395355 0.999999940395355 0.999999821186066 0.999999940395355 0.999999761581421 0.999999821186066 0.999999463558197 0.999999940395355 0.999999821186066 0.99999988079071 0.999999642372131 0.999999821186066 0.999999463558197 0.999999642372131 0.999998927116394 0.999999761581421 0.999999344348907 0.999999463558197 0.999998569488525 0.999999344348907 0.999998390674591 0.999998569488525 0.999996542930603 0.999999463558197 0.999998569488525 0.999998927116394 0.999997138977051 0.999998569488525 0.999996542930603 0.999997138977051 0.999993085861206 1 1 1 1 1 1 1 0.999999940395355 1 1 1 0.999999940395355 1 0.999999940395355 0.999999940395355 0.999999821186066 1 1 0.999999940395355 0.999999940395355 1 1 0.999999940395355 0.999999821186066 0.999999940395355 0.999999940395355 0.999999821186066 0.999999642372131 0.999999940395355 0.999999821186066 0.999999642372131 0.999999344348907 1 0.999999940395355 0.99999988079071 0.999999761581421 0.999999940395355 0.999999821186066 0.999999761581421 0.999999463558197 0.99999988079071 0.999999761581421 0.999999701976776 0.999999344348907 0.999999761581421 0.999999463558197 0.999999344348907 0.999998569488525 0.999999821186066 0.999999642372131 0.999999463558197 0.999998927116394 0.999999642372131 0.999999344348907 0.999998927116394 0.999997794628143 0.999999463558197 0.999998927116394 0.999998569488525 0.999996960163116 0.999998927116394 0.999997794628143 0.999996960163116 0.999994099140167 1 1 0.999999821186066 0.999999701976776 1 1 0.999999701976776 0.999999463558197 0.999999821186066 0.999999701976776 0.999999344348907 0.999998688697815 0.999999701976776 0.999999463558197 0.999998688697815 0.999997675418854 1 1 0.999999463558197 0.999999105930328 1 1 0.999999105930328 0.999998509883881 0.999999463558197 0.999999105930328 0.999997675418854 0.999996066093445 0.999999105930328 0.999998509883881 0.999996066093445 0.999993622303009 0.999999344348907 0.999998688697815 0.999997794628143 0.999995946884155 0.999998688697815 0.999997675418854 0.999995946884155 0.999992787837982 0.999997794628143 0.999995946884155 0.999994099140167 0.999989092350006 0.999995946884155 0.999992787837982 0.999989092350006 0.999980866909027 0.999997675418854 0.999996066093445 0.999992787837982 0.999987840652466 0.999996066093445 0.999993622303009 0.999987840652466 0.999980509281158 0.999992787837982 0.999987840652466 0.999980866909027 0.999968111515045 0.999987840652466 0.999980509281158 0.999968111515045 0.999949395656586 0.999999701976776 0.999999344348907 0.999999284744263 0.999998390674591 0.999999344348907 0.999998569488525 0.999998390674591 0.999996423721313 0.999999284744263 0.999998390674591 0.999998390674591 0.999996244907379 0.999998390674591 0.999996423721313 0.999996244907379 0.999991893768311 0.999998569488525 0.999996960163116 0.999996423721313 0.999992609024048 0.999996960163116 0.999994099140167 0.999992609024048 0.999985754489899 0.999996423721313 0.999992609024048 0.999991893768311 0.999983549118042 0.999992609024048 0.999985754489899 0.999983549118042 0.999968469142914 0.999998390674591 0.999996244907379 0.999996542930603 0.999992072582245 0.999996244907379 0.999991893768311 0.999992072582245 0.999983072280884 0.999996542930603 0.999992072582245 0.999993085861206 0.999984323978424 0.999992072582245 0.999983072280884 0.999984323978424 0.99996680021286 0.999991893768311 0.999983549118042 0.999983072280884 0.999965906143188 0.999983549118042 0.999968469142914 0.999965906143188 0.999935328960419 0.999983072280884 0.999965906143188 0.99996680021286 0.999933898448944 0.999965906143188 0.999935328960419 0.999933898448944 0.999875724315643 0.999994099140167 0.999989092350006 0.999985754489899 0.999973893165588 0.999989092350006 0.999980866909027 0.999973893165588 0.999954760074615 0.999985754489899 0.999973893165588 0.999968469142914 0.999942898750305 0.999973893165588 0.999954760074615 0.999942898750305 0.999901831150055 0.999980866909027 0.999968111515045 0.999954760074615 0.999925315380096 0.999968111515045 0.999949395656586 0.999925315380096 0.999882400035858 0.999954760074615 0.999925315380096 0.999901831150055 0.999839425086975 0.999925315380096 0.999882400035858 0.999839425086975 0.999749302864075 0.999968469142914 0.999942898750305 0.999935328960419 0.999883890151978 0.999942898750305 0.999901831150055 0.999883890151978 0.99980217218399 0.999935328960419 0.999883890151978 0.999875724315643 0.999778866767883 0.999883890151978 0.99980217218399 0.999778866767883 0.999626159667969 0.999901831150055 0.999839425086975 0.99980217218399 0.99967896938324 0.999839425086975 0.999749302864075 0.99967896938324 0.999502599239349 0.99980217218399 0.99967896938324 0.999626159667969 0.999397873878479 0.99967896938324 0.999502599239349 0.999397873878479 0.999073386192322 1 1 1 1 1 1 1 1 1 1 1 1 1 1 1 1 1 0.999999940395355 1 0.999999940395355 0.999999940395355 0.99999988079071 0.999999940395355 0.999999761581421 1 0.999999940395355 1 0.99999988079071 0.999999940395355 0.999999761581421 0.99999988079071 0.999999582767487 1 1 1 1 1 1 1 0.999999940395355 1 1 1 1 1 0.999999940395355 1 0.99999988079071 1 0.99999988079071 0.999999940395355 0.999999761581421 0.99999988079071 0.999999582767487 0.999999761581421 0.999999225139618 0.999999940395355 0.999999761581421 0.99999988079071 0.999999642372131 0.999999761581421 0.999999225139618 0.999999642372131 0.999998688697815 0.99999988079071 0.999999642372131 0.999999761581421 0.999999284744263 0.999999642372131 0.999998927116394 0.999999284744263 0.999997913837433 0.999999761581421 0.999999284744263 0.999999582767487 0.99999862909317 0.999999284744263 0.999997913837433 0.99999862909317 0.999996185302734 0.999998927116394 0.999997138977051 0.999997913837433 0.999994575977325 0.999997138977051 0.999993085861206 0.999994575977325 0.999986946582794 0.999997913837433 0.999994575977325 0.999996185302734 0.999990284442902 0.999994575977325 0.999986946582794 0.999990284442902 0.999976873397827 0.999999582767487 0.99999862909317 0.999999225139618 0.999997615814209 0.99999862909317 0.999996185302734 0.999997615814209 0.999993503093719 0.999999225139618 0.999997615814209 0.999998688697815 0.99999612569809 0.999997615814209 0.999993503093719 0.99999612569809 0.999989330768585 0.999996185302734 0.999990284442902 0.999993503093719 0.999983429908752 0.999990284442902 0.999976873397827 0.999983429908752 0.999960958957672 0.999993503093719 0.999983429908752 0.999989330768585 0.999973118305206 0.999983429908752 0.999960958957672 0.999973118305206 0.999937415122986 1 1 1 1 1 0.99999988079071 1 0.999999821186066 1 1 1 0.999999940395355 1 0.999999821186066 0.999999940395355 0.999999761581421 0.99999988079071 0.999999642372131 0.999999821186066 0.999999403953552 0.999999642372131 0.999998688697815 0.999999403953552 0.999997913837433 0.999999821186066 0.999999403953552 0.999999761581421 0.999999046325684 0.999999403953552 0.999997913837433 0.999999046325684 0.999996840953827 1 0.999999940395355 1 0.999999940395355 0.999999940395355 0.999999761581421 0.999999940395355 0.999999642372131 1 0.999999940395355 1 0.99999988079071 0.999999940395355 0.999999642372131 0.99999988079071 0.999999463558197 0.999999761581421 0.999999046325684 0.999999642372131 0.99999862909317 0.999999046325684 0.999996840953827 0.99999862909317 0.999995410442352 0.999999642372131 0.99999862909317 0.999999463558197 0.999998033046722 0.99999862909317 0.999995410442352 0.999998033046722 0.999993562698364 0.999998688697815 0.99999612569809 0.999997913837433 0.999993860721588 0.99999612569809 0.999989330768585 0.999993860721588 0.999983310699463 0.999997913837433 0.999993860721588 0.999996840953827 0.999990701675415 0.999993860721588 0.999983310699463 0.999990701675415 0.999975144863129 0.999989330768585 0.999973118305206 0.999983310699463 0.999958515167236 0.999973118305206 0.999937415122986 0.999958515167236 0.999904215335846 0.999983310699463 0.999958515167236 0.999975144863129 0.999938726425171 0.999958515167236 0.999904215335846 0.999938726425171 0.999859750270844 0.999996840953827 0.999990701675415 0.999995410442352 0.999986588954926 0.999990701675415 0.999975144863129 0.999986588954926 0.999964475631714 0.999995410442352 0.999986588954926 0.999993562698364 0.99998140335083 0.999986588954926 0.999964475631714 0.99998140335083 0.999951183795929 0.999975144863129 0.999938726425171 0.999964475631714 0.999913156032562 0.999938726425171 0.999859750270844 0.999913156032562 0.999802827835083 0.999964475631714 0.999913156032562 0.999951183795929 0.999881744384766 0.999913156032562 0.999802827835083 0.999881744384766 0.999733448028564 0.999993085861206 0.999984323978424 0.999986946582794 0.999970853328705 0.999984323978424 0.99996680021286 0.999970853328705 0.999938786029816 0.999986946582794 0.999970853328705 0.999976873397827 0.999948680400848 0.999970853328705 0.999938786029816 0.999948680400848 0.999893307685852 0.99996680021286 0.999933898448944 0.999938786029816 0.999879240989685 0.999933898448944 0.999875724315643 0.999879240989685 0.999775052070618 0.999938786029816 0.999879240989685 0.999893307685852 0.999791383743286 0.999879240989685 0.999775052070618 0.999791383743286 0.999614417552948 0.999976873397827 0.999948680400848 0.999960958957672 0.999914288520813 0.999948680400848 0.999893307685852 0.999914288520813 0.99982351064682 0.999960958957672 0.999914288520813 0.999937415122986 0.999863803386688 0.999914288520813 0.99982351064682 0.999863803386688 0.999721825122833 0.999893307685852 0.999791383743286 0.99982351064682 0.99965763092041 0.999791383743286 0.999614417552948 0.99965763092041 0.999371945858002 0.99982351064682 0.99965763092041 0.999721825122833 0.999464452266693 0.99965763092041 0.999371945858002 0.999464452266693 0.999024271965027 0.999875724315643 0.999778866767883 0.999775052070618 0.999602854251862 0.999778866767883 0.999626159667969 0.999602854251862 0.999333560466766 0.999775052070618 0.999602854251862 0.999614417552948 0.999324321746826 0.999602854251862 0.999333560466766 0.999324321746826 0.998873889446259 0.999626159667969 0.999397873878479 0.999333560466766 0.998933851718903 0.999397873878479 0.999073386192322 0.998933851718903 0.998369634151459 0.999333560466766 0.998933851718903 0.998873889446259 0.998209655284882 0.998933851718903 0.998369634151459 0.998209655284882 0.997277736663818 0.999614417552948 0.999324321746826 0.999371945858002 0.998906850814819 0.999324321746826 0.998873889446259 0.998906850814819 0.998189270496368 0.999371945858002 0.998906850814819 0.999024271965027 0.99831235408783 0.998906850814819 0.998189270496368 0.99831235408783 0.997220456600189 0.998873889446259 0.998209655284882 0.998189270496368 0.997137606143951 0.998209655284882 0.997277736663818 0.997137606143951 0.995670080184937 0.998189270496368 0.997137606143951 0.997220456600189 0.995628476142883 0.997137606143951 0.995670080184937 0.995628476142883 0.993416726589203 0.999937415122986 0.999863803386688 0.999904215335846 0.999793350696564 0.999863803386688 0.999721825122833 0.999793350696564 0.999581158161163 0.999904215335846 0.999793350696564 0.999859750270844 0.999699711799622 0.999793350696564 0.999581158161163 0.999699711799622 0.999395728111267 0.999721825122833 0.999464452266693 0.999581158161163 0.999199151992798 0.999464452266693 0.999024271965027 0.999199151992798 0.998550236225128 0.999581158161163 0.999199151992798 0.999395728111267 0.998852074146271 0.999199151992798 0.998550236225128 0.998852074146271 0.997933864593506 0.999859750270844 0.999699711799622 0.999802827835083 0.999581038951874 0.999699711799622 0.999395728111267 0.999581038951874 0.999162495136261 0.999802827835083 0.999581038951874 0.999733448028564 0.999437391757965 0.999581038951874 0.999162495136261 0.999437391757965 0.998882114887238 0.999395728111267 0.998852074146271 0.999162495136261 0.99841845035553 0.998852074146271 0.997933864593506 0.99841845035553 0.99716854095459 0.999162495136261 0.99841845035553 0.998882114887238 0.997900426387787 0.99841845035553 0.99716854095459 0.997900426387787 0.996259272098541 0.999024271965027 0.99831235408783 0.998550236225128 0.997506737709045 0.99831235408783 0.997220456600189 0.997506737709045 0.995914280414581 0.998550236225128 0.997506737709045 0.997933864593506 0.99646520614624 0.997506737709045 0.995914280414581 0.99646520614624 0.994230270385742 0.997220456600189 0.995628476142883 0.995914280414581 0.993600249290466 0.995628476142883 0.993416726589203 0.993600249290466 0.990383863449097 0.995914280414581 0.993600249290466 0.994230270385742 0.990952849388123 0.993600249290466 0.990383863449097 0.990952849388123 0.986214816570282 0.997933864593506 0.99646520614624 0.99716854095459 0.995177924633026 0.99646520614624 0.994230270385742 0.995177924633026 0.992147922515869 0.99716854095459 0.995177924633026 0.996259272098541 0.993654131889343 0.995177924633026 0.992147922515869 0.993654131889343 0.989626944065094 0.994230270385742 0.990952849388123 0.992147922515869 0.987257719039917 0.990952849388123 0.986214816570282 0.987257719039917 0.976947724819183 0.992147922515869 0.987257719039917 0.989626944065094 0.982287347316742 0.987257719039917 0.976947724819183 0.982287347316742 0.914667010307312 1 1 0.999998509883881 0.999997675418854 1 1 0.999997675418854 0.999996542930603 0.999998509883881 0.999997675418854 0.999993622303009 0.999990105628967 0.999997675418854 0.999996542930603 0.999990105628967 0.99998539686203 1 1 0.999996542930603 0.999994993209839 1 1 0.999994993209839 0.999993085861206 0.999996542930603 0.999994993209839 0.99998539686203 0.999979257583618 0.999994993209839 0.999993085861206 0.999979257583618 0.999971628189087 0.999993622303009 0.999990105628967 0.999980509281158 0.999970138072968 0.999990105628967 0.99998539686203 0.999970138072968 0.99995619058609 0.999980509281158 0.999970138072968 0.999949395656586 0.999923169612885 0.999970138072968 0.99995619058609 0.999923169612885 0.999888300895691 0.99998539686203 0.999979257583618 0.99995619058609 0.999938249588013 0.999979257583618 0.999971628189087 0.999938249588013 0.999916315078735 0.99995619058609 0.999938249588013 0.999888300895691 0.999843895435333 0.999938249588013 0.999916315078735 0.999843895435333 0.999789834022522 1 1 0.999993085861206 0.999990820884705 1 1 0.999990820884705 0.999988257884979 0.999993085861206 0.999990820884705 0.999971628189087 0.999962627887726 0.999990820884705 0.999988257884979 0.999962627887726 0.999952375888824 1 1 0.999988257884979 0.99998539686203 1 1 0.99998539686203 0.999982357025146 0.999988257884979 0.99998539686203 0.999952375888824 0.999941229820251 0.99998539686203 0.999982357025146 0.999941229820251 0.999929487705231 0.999971628189087 0.999962627887726 0.999916315078735 0.999890506267548 0.999962627887726 0.999952375888824 0.999890506267548 0.999861478805542 0.999916315078735 0.999890506267548 0.999789834022522 0.999726951122284 0.999890506267548 0.999861478805542 0.999726951122284 0.999656558036804 0.999952375888824 0.999941229820251 0.999861478805542 0.999830007553101 0.999941229820251 0.999929487705231 0.999830007553101 0.999797224998474 0.999861478805542 0.999830007553101 0.999656558036804 0.999580979347229 0.999830007553101 0.999797224998474 0.999580979347229 0.999502897262573 0.999949395656586 0.999923169612885 0.999882400035858 0.999823033809662 0.999923169612885 0.999888300895691 0.999823033809662 0.999744594097137 0.999882400035858 0.999823033809662 0.999749302864075 0.999625504016876 0.999823033809662 0.999744594097137 0.999625504016876 0.999463319778442 0.999888300895691 0.999843895435333 0.999744594097137 0.999645590782166 0.999843895435333 0.999789834022522 0.999645590782166 0.99952620267868 0.999744594097137 0.999645590782166 0.999463319778442 0.999260246753693 0.999645590782166 0.99952620267868 0.999260246753693 0.999016880989075 0.999749302864075 0.999625504016876 0.999502599239349 0.999262094497681 0.999625504016876 0.999463319778442 0.999262094497681 0.998949229717255 0.999502599239349 0.999262094497681 0.999073386192322 0.998634099960327 0.999262094497681 0.998949229717255 0.998634099960327 0.998066365718842 0.999463319778442 0.999260246753693 0.998949229717255 0.998560190200806 0.999260246753693 0.999016880989075 0.998560190200806 0.998097121715546 0.998949229717255 0.998560190200806 0.998066365718842 0.99736475944519 0.998560190200806 0.998097121715546 0.99736475944519 0.99653434753418 0.999789834022522 0.999726951122284 0.99952620267868 0.999388098716736 0.999726951122284 0.999656558036804 0.999388098716736 0.999234795570374 0.99952620267868 0.999388098716736 0.999016880989075 0.998737394809723 0.999388098716736 0.999234795570374 0.998737394809723 0.998429119586945 0.999656558036804 0.999580979347229 0.999234795570374 0.999071180820465 0.999580979347229 0.999502897262573 0.999071180820465 0.998903214931488 0.999234795570374 0.999071180820465 0.998429119586945 0.998102247714996 0.999071180820465 0.998903214931488 0.998102247714996 0.997768521308899 0.999016880989075 0.998737394809723 0.998097121715546 0.997568368911743 0.998737394809723 0.998429119586945 0.997568368911743 0.996988594532013 0.998097121715546 0.997568368911743 0.99653434753418 0.995591402053833 0.997568368911743 0.996988594532013 0.995591402053833 0.994562745094299 0.998429119586945 0.998102247714996 0.996988594532013 0.996377170085907 0.998102247714996 0.997768521308899 0.996377170085907 0.995756208896637 0.996988594532013 0.996377170085907 0.994562745094299 0.993483066558838 0.996377170085907 0.995756208896637 0.993483066558838 0.992391586303711 1 1 0.999982357025146 0.999979257583618 1 1 0.999979257583618 0.999976277351379 0.999982357025146 0.999979257583618 0.999929487705231 0.99991762638092 0.999979257583618 0.999976277351379 0.99991762638092 0.999906122684479 1 1 0.999976277351379 0.99997341632843 1 1 0.99997341632843 0.99997079372406 0.999976277351379 0.99997341632843 0.999906122684479 0.99989527463913 0.99997341632843 0.99997079372406 0.99989527463913 0.999885380268097 0.999929487705231 0.99991762638092 0.999797224998474 0.999764382839203 0.99991762638092 0.999906122684479 0.999764382839203 0.999732673168182 0.999797224998474 0.999764382839203 0.999502897262573 0.999425113201141 0.999764382839203 0.999732673168182 0.999425113201141 0.999350368976593 0.999906122684479 0.99989527463913 0.999732673168182 0.999702990055084 0.99989527463913 0.999885380268097 0.999702990055084 0.999676287174225 0.999732673168182 0.999702990055084 0.999350368976593 0.999281108379364 0.999702990055084 0.999676287174225 0.999281108379364 0.999218940734863 1 1 0.99997079372406 0.999968409538269 1 1 0.999968409538269 0.999966263771057 0.99997079372406 0.999968409538269 0.999885380268097 0.99987667798996 0.999968409538269 0.999966263771057 0.99987667798996 0.999868154525757 1 1 0.999966263771057 0.999958276748657 1 1 0.999958276748657 0.999953091144562 0.999966263771057 0.999