# vtk DataFile Version 3.0
#This file was generated by the deal.II library on 2015/7/1 at 13:20:26
ASCII
DATASET UNSTRUCTURED_GRID

POINTS 4096 double
0 0 0
0.03125 0 0
0 0.03125 0
0.03125 0.03125 0
0.03125 0 0
0.0625 0 0
0.03125 0.03125 0
0.0625 0.03125 0
0 0.03125 0
0.03125 0.03125 0
0 0.0625 0
0.03125 0.0625 0
0.03125 0.03125 0
0.0625 0.03125 0
0.03125 0.0625 0
0.0625 0.0625 0
0.0625 0 0
0.09375 0 0
0.0625 0.03125 0
0.09375 0.03125 0
0.09375 0 0
0.125 0 0
0.09375 0.03125 0
0.125 0.03125 0
0.0625 0.03125 0
0.09375 0.03125 0
0.0625 0.0625 0
0.09375 0.0625 0
0.09375 0.03125 0
0.125 0.03125 0
0.09375 0.0625 0
0.125 0.0625 0
0 0.0625 0
0.03125 0.0625 0
0 0.09375 0
0.03125 0.09375 0
0.03125 0.0625 0
0.0625 0.0625 0
0.03125 0.09375 0
0.0625 0.09375 0
0 0.09375 0
0.03125 0.09375 0
0 0.125 0
0.03125 0.125 0
0.03125 0.09375 0
0.0625 0.09375 0
0.03125 0.125 0
0.0625 0.125 0
0.0625 0.0625 0
0.09375 0.0625 0
0.0625 0.09375 0
0.09375 0.09375 0
0.09375 0.0625 0
0.125 0.0625 0
0.09375 0.09375 0
0.125 0.09375 0
0.0625 0.09375 0
0.09375 0.09375 0
0.0625 0.125 0
0.09375 0.125 0
0.09375 0.09375 0
0.125 0.09375 0
0.09375 0.125 0
0.125 0.125 0
0.125 0 0
0.15625 0 0
0.125 0.03125 0
0.15625 0.03125 0
0.15625 0 0
0.1875 0 0
0.15625 0.03125 0
0.1875 0.03125 0
0.125 0.03125 0
0.15625 0.03125 0
0.125 0.0625 0
0.15625 0.0625 0
0.15625 0.03125 0
0.1875 0.03125 0
0.15625 0.0625 0
0.1875 0.0625 0
0.1875 0 0
0.21875 0 0
0.1875 0.03125 0
0.21875 0.03125 0
0.21875 0 0
0.25 0 0
0.21875 0.03125 0
0.25 0.03125 0
0.1875 0.03125 0
0.21875 0.03125 0
0.1875 0.0625 0
0.21875 0.0625 0
0.21875 0.03125 0
0.25 0.03125 0
0.21875 0.0625 0
0.25 0.0625 0
0.125 0.0625 0
0.15625 0.0625 0
0.125 0.09375 0
0.15625 0.09375 0
0.15625 0.0625 0
0.1875 0.0625 0
0.15625 0.09375 0
0.1875 0.09375 0
0.125 0.09375 0
0.15625 0.09375 0
0.125 0.125 0
0.15625 0.125 0
0.15625 0.09375 0
0.1875 0.09375 0
0.15625 0.125 0
0.1875 0.125 0
0.1875 0.0625 0
0.21875 0.0625 0
0.1875 0.09375 0
0.21875 0.09375 0
0.21875 0.0625 0
0.25 0.0625 0
0.21875 0.09375 0
0.25 0.09375 0
0.1875 0.09375 0
0.21875 0.09375 0
0.1875 0.125 0
0.21875 0.125 0
0.21875 0.09375 0
0.25 0.09375 0
0.21875 0.125 0
0.25 0.125 0
0 0.125 0
0.03125 0.125 0
0 0.15625 0
0.03125 0.15625 0
0.03125 0.125 0
0.0625 0.125 0
0.03125 0.15625 0
0.0625 0.15625 0
0 0.15625 0
0.03125 0.15625 0
0 0.1875 0
0.03125 0.1875 0
0.03125 0.15625 0
0.0625 0.15625 0
0.03125 0.1875 0
0.0625 0.1875 0
0.0625 0.125 0
0.09375 0.125 0
0.0625 0.15625 0
0.09375 0.15625 0
0.09375 0.125 0
0.125 0.125 0
0.09375 0.15625 0
0.125 0.15625 0
0.0625 0.15625 0
0.09375 0.15625 0
0.0625 0.1875 0
0.09375 0.1875 0
0.09375 0.15625 0
0.125 0.15625 0
0.09375 0.1875 0
0.125 0.1875 0
0 0.1875 0
0.03125 0.1875 0
0 0.21875 0
0.03125 0.21875 0
0.03125 0.1875 0
0.0625 0.1875 0
0.03125 0.21875 0
0.0625 0.21875 0
0 0.21875 0
0.03125 0.21875 0
0 0.25 0
0.03125 0.25 0
0.03125 0.21875 0
0.0625 0.21875 0
0.03125 0.25 0
0.0625 0.25 0
0.0625 0.1875 0
0.09375 0.1875 0
0.0625 0.21875 0
0.09375 0.21875 0
0.09375 0.1875 0
0.125 0.1875 0
0.09375 0.21875 0
0.125 0.21875 0
0.0625 0.21875 0
0.09375 0.21875 0
0.0625 0.25 0
0.09375 0.25 0
0.09375 0.21875 0
0.125 0.21875 0
0.09375 0.25 0
0.125 0.25 0
0.125 0.125 0
0.15625 0.125 0
0.125 0.15625 0
0.15625 0.15625 0
0.15625 0.125 0
0.1875 0.125 0
0.15625 0.15625 0
0.1875 0.15625 0
0.125 0.15625 0
0.15625 0.15625 0
0.125 0.1875 0
0.15625 0.1875 0
0.15625 0.15625 0
0.1875 0.15625 0
0.15625 0.1875 0
0.1875 0.1875 0
0.1875 0.125 0
0.21875 0.125 0
0.1875 0.15625 0
0.21875 0.15625 0
0.21875 0.125 0
0.25 0.125 0
0.21875 0.15625 0
0.25 0.15625 0
0.1875 0.15625 0
0.21875 0.15625 0
0.1875 0.1875 0
0.21875 0.1875 0
0.21875 0.15625 0
0.25 0.15625 0
0.21875 0.1875 0
0.25 0.1875 0
0.125 0.1875 0
0.15625 0.1875 0
0.125 0.21875 0
0.15625 0.21875 0
0.15625 0.1875 0
0.1875 0.1875 0
0.15625 0.21875 0
0.1875 0.21875 0
0.125 0.21875 0
0.15625 0.21875 0
0.125 0.25 0
0.15625 0.25 0
0.15625 0.21875 0
0.1875 0.21875 0
0.15625 0.25 0
0.1875 0.25 0
0.1875 0.1875 0
0.21875 0.1875 0
0.1875 0.21875 0
0.21875 0.21875 0
0.21875 0.1875 0
0.25 0.1875 0
0.21875 0.21875 0
0.25 0.21875 0
0.1875 0.21875 0
0.21875 0.21875 0
0.1875 0.25 0
0.21875 0.25 0
0.21875 0.21875 0
0.25 0.21875 0
0.21875 0.25 0
0.25 0.25 0
0.25 0 0
0.28125 0 0
0.25 0.03125 0
0.28125 0.03125 0
0.28125 0 0
0.3125 0 0
0.28125 0.03125 0
0.3125 0.03125 0
0.25 0.03125 0
0.28125 0.03125 0
0.25 0.0625 0
0.28125 0.0625 0
0.28125 0.03125 0
0.3125 0.03125 0
0.28125 0.0625 0
0.3125 0.0625 0
0.3125 0 0
0.34375 0 0
0.3125 0.03125 0
0.34375 0.03125 0
0.34375 0 0
0.375 0 0
0.34375 0.03125 0
0.375 0.03125 0
0.3125 0.03125 0
0.34375 0.03125 0
0.3125 0.0625 0
0.34375 0.0625 0
0.34375 0.03125 0
0.375 0.03125 0
0.34375 0.0625 0
0.375 0.0625 0
0.25 0.0625 0
0.28125 0.0625 0
0.25 0.09375 0
0.28125 0.09375 0
0.28125 0.0625 0
0.3125 0.0625 0
0.28125 0.09375 0
0.3125 0.09375 0
0.25 0.09375 0
0.28125 0.09375 0
0.25 0.125 0
0.28125 0.125 0
0.28125 0.09375 0
0.3125 0.09375 0
0.28125 0.125 0
0.3125 0.125 0
0.3125 0.0625 0
0.34375 0.0625 0
0.3125 0.09375 0
0.34375 0.09375 0
0.34375 0.0625 0
0.375 0.0625 0
0.34375 0.09375 0
0.375 0.09375 0
0.3125 0.09375 0
0.34375 0.09375 0
0.3125 0.125 0
0.34375 0.125 0
0.34375 0.09375 0
0.375 0.09375 0
0.34375 0.125 0
0.375 0.125 0
0.375 0 0
0.40625 0 0
0.375 0.03125 0
0.40625 0.03125 0
0.40625 0 0
0.4375 0 0
0.40625 0.03125 0
0.4375 0.03125 0
0.375 0.03125 0
0.40625 0.03125 0
0.375 0.0625 0
0.40625 0.0625 0
0.40625 0.03125 0
0.4375 0.03125 0
0.40625 0.0625 0
0.4375 0.0625 0
0.4375 0 0
0.46875 0 0
0.4375 0.03125 0
0.46875 0.03125 0
0.46875 0 0
0.5 0 0
0.46875 0.03125 0
0.5 0.03125 0
0.4375 0.03125 0
0.46875 0.03125 0
0.4375 0.0625 0
0.46875 0.0625 0
0.46875 0.03125 0
0.5 0.03125 0
0.46875 0.0625 0
0.5 0.0625 0
0.375 0.0625 0
0.40625 0.0625 0
0.375 0.09375 0
0.40625 0.09375 0
0.40625 0.0625 0
0.4375 0.0625 0
0.40625 0.09375 0
0.4375 0.09375 0
0.375 0.09375 0
0.40625 0.09375 0
0.375 0.125 0
0.40625 0.125 0
0.40625 0.09375 0
0.4375 0.09375 0
0.40625 0.125 0
0.4375 0.125 0
0.4375 0.0625 0
0.46875 0.0625 0
0.4375 0.09375 0
0.46875 0.09375 0
0.46875 0.0625 0
0.5 0.0625 0
0.46875 0.09375 0
0.5 0.09375 0
0.4375 0.09375 0
0.46875 0.09375 0
0.4375 0.125 0
0.46875 0.125 0
0.46875 0.09375 0
0.5 0.09375 0
0.46875 0.125 0
0.5 0.125 0
0.25 0.125 0
0.28125 0.125 0
0.25 0.15625 0
0.28125 0.15625 0
0.28125 0.125 0
0.3125 0.125 0
0.28125 0.15625 0
0.3125 0.15625 0
0.25 0.15625 0
0.28125 0.15625 0
0.25 0.1875 0
0.28125 0.1875 0
0.28125 0.15625 0
0.3125 0.15625 0
0.28125 0.1875 0
0.3125 0.1875 0
0.3125 0.125 0
0.34375 0.125 0
0.3125 0.15625 0
0.34375 0.15625 0
0.34375 0.125 0
0.375 0.125 0
0.34375 0.15625 0
0.375 0.15625 0
0.3125 0.15625 0
0.34375 0.15625 0
0.3125 0.1875 0
0.34375 0.1875 0
0.34375 0.15625 0
0.375 0.15625 0
0.34375 0.1875 0
0.375 0.1875 0
0.25 0.1875 0
0.28125 0.1875 0
0.25 0.21875 0
0.28125 0.21875 0
0.28125 0.1875 0
0.3125 0.1875 0
0.28125 0.21875 0
0.3125 0.21875 0
0.25 0.21875 0
0.28125 0.21875 0
0.25 0.25 0
0.28125 0.25 0
0.28125 0.21875 0
0.3125 0.21875 0
0.28125 0.25 0
0.3125 0.25 0
0.3125 0.1875 0
0.34375 0.1875 0
0.3125 0.21875 0
0.34375 0.21875 0
0.34375 0.1875 0
0.375 0.1875 0
0.34375 0.21875 0
0.375 0.21875 0
0.3125 0.21875 0
0.34375 0.21875 0
0.3125 0.25 0
0.34375 0.25 0
0.34375 0.21875 0
0.375 0.21875 0
0.34375 0.25 0
0.375 0.25 0
0.375 0.125 0
0.40625 0.125 0
0.375 0.15625 0
0.40625 0.15625 0
0.40625 0.125 0
0.4375 0.125 0
0.40625 0.15625 0
0.4375 0.15625 0
0.375 0.15625 0
0.40625 0.15625 0
0.375 0.1875 0
0.40625 0.1875 0
0.40625 0.15625 0
0.4375 0.15625 0
0.40625 0.1875 0
0.4375 0.1875 0
0.4375 0.125 0
0.46875 0.125 0
0.4375 0.15625 0
0.46875 0.15625 0
0.46875 0.125 0
0.5 0.125 0
0.46875 0.15625 0
0.5 0.15625 0
0.4375 0.15625 0
0.46875 0.15625 0
0.4375 0.1875 0
0.46875 0.1875 0
0.46875 0.15625 0
0.5 0.15625 0
0.46875 0.1875 0
0.5 0.1875 0
0.375 0.1875 0
0.40625 0.1875 0
0.375 0.21875 0
0.40625 0.21875 0
0.40625 0.1875 0
0.4375 0.1875 0
0.40625 0.21875 0
0.4375 0.21875 0
0.375 0.21875 0
0.40625 0.21875 0
0.375 0.25 0
0.40625 0.25 0
0.40625 0.21875 0
0.4375 0.21875 0
0.40625 0.25 0
0.4375 0.25 0
0.4375 0.1875 0
0.46875 0.1875 0
0.4375 0.21875 0
0.46875 0.21875 0
0.46875 0.1875 0
0.5 0.1875 0
0.46875 0.21875 0
0.5 0.21875 0
0.4375 0.21875 0
0.46875 0.21875 0
0.4375 0.25 0
0.46875 0.25 0
0.46875 0.21875 0
0.5 0.21875 0
0.46875 0.25 0
0.5 0.25 0
0 0.25 0
0.03125 0.25 0
0 0.28125 0
0.03125 0.28125 0
0.03125 0.25 0
0.0625 0.25 0
0.03125 0.28125 0
0.0625 0.28125 0
0 0.28125 0
0.03125 0.28125 0
0 0.3125 0
0.03125 0.3125 0
0.03125 0.28125 0
0.0625 0.28125 0
0.03125 0.3125 0
0.0625 0.3125 0
0.0625 0.25 0
0.09375 0.25 0
0.0625 0.28125 0
0.09375 0.28125 0
0.09375 0.25 0
0.125 0.25 0
0.09375 0.28125 0
0.125 0.28125 0
0.0625 0.28125 0
0.09375 0.28125 0
0.0625 0.3125 0
0.09375 0.3125 0
0.09375 0.28125 0
0.125 0.28125 0
0.09375 0.3125 0
0.125 0.3125 0
0 0.3125 0
0.03125 0.3125 0
0 0.34375 0
0.03125 0.34375 0
0.03125 0.3125 0
0.0625 0.3125 0
0.03125 0.34375 0
0.0625 0.34375 0
0 0.34375 0
0.03125 0.34375 0
0 0.375 0
0.03125 0.375 0
0.03125 0.34375 0
0.0625 0.34375 0
0.03125 0.375 0
0.0625 0.375 0
0.0625 0.3125 0
0.09375 0.3125 0
0.0625 0.34375 0
0.09375 0.34375 0
0.09375 0.3125 0
0.125 0.3125 0
0.09375 0.34375 0
0.125 0.34375 0
0.0625 0.34375 0
0.09375 0.34375 0
0.0625 0.375 0
0.09375 0.375 0
0.09375 0.34375 0
0.125 0.34375 0
0.09375 0.375 0
0.125 0.375 0
0.125 0.25 0
0.15625 0.25 0
0.125 0.28125 0
0.15625 0.28125 0
0.15625 0.25 0
0.1875 0.25 0
0.15625 0.28125 0
0.1875 0.28125 0
0.125 0.28125 0
0.15625 0.28125 0
0.125 0.3125 0
0.15625 0.3125 0
0.15625 0.28125 0
0.1875 0.28125 0
0.15625 0.3125 0
0.1875 0.3125 0
0.1875 0.25 0
0.21875 0.25 0
0.1875 0.28125 0
0.21875 0.28125 0
0.21875 0.25 0
0.25 0.25 0
0.21875 0.28125 0
0.25 0.28125 0
0.1875 0.28125 0
0.21875 0.28125 0
0.1875 0.3125 0
0.21875 0.3125 0
0.21875 0.28125 0
0.25 0.28125 0
0.21875 0.3125 0
0.25 0.3125 0
0.125 0.3125 0
0.15625 0.3125 0
0.125 0.34375 0
0.15625 0.34375 0
0.15625 0.3125 0
0.1875 0.3125 0
0.15625 0.34375 0
0.1875 0.34375 0
0.125 0.34375 0
[...]
POINT_DATA 4096
SCALARS flux double 1
LOOKUP_TABLE default
1 1 1 0.99894791841507 1 1 0.99894791841507 0.999897718429565 1 0.99894791841507 1 1.00046598911285 0.99894791841507 0.999897718429565 1.00046598911285 0.999741017818451 1 1 0.999897718429565 0.999954044818878 1 1 0.999954044818878 0.999461710453033 0.999897718429565 0.999954044818878 0.999741017818451 1.00012218952179 0.999954044818878 0.999461710453033 1.00012218952179 1.00020170211792 1 1.00046598911285 1 0.999587297439575 1.00046598911285 0.999741017818451 0.999587297439575 1.00024390220642 1 0.999587297439575 1 0.999924659729004 0.999587297439575 1.00024390220642 0.999924659729004 0.999698579311371 0.999741017818451 1.00012218952179 1.00024390220642 0.999931573867798 1.00012218952179 1.00020170211792 0.999931573867798 0.999819576740265 1.00024390220642 0.999931573867798 0.999698579311371 1.00011587142944 0.999931573867798 0.999819576740265 1.00011587142944 0.999854743480682 1 1 0.999461710453033 1.00081300735474 1 1 1.00081300735474 0.998965382575989 0.999461710453033 1.00081300735474 1.00020170211792 0.999571025371552 1.00081300735474 0.998965382575989 0.999571025371552 1.00065529346466 1 1 0.998965382575989 1.00103759765625 1 1 1.00103759765625 0.999190151691437 0.998965382575989 1.00103759765625 1.00065529346466 0.9991455078125 1.00103759765625 0.999190151691437 0.9991455078125 1.00106537342072 1.00020170211792 0.999571025371552 0.999819576740265 1.00051069259644 0.999571025371552 1.00065529346466 1.00051069259644 0.999182283878326 0.999819576740265 1.00051069259644 0.999854743480682 0.999730288982391 1.00051069259644 0.999182283878326 0.999730288982391 1.0009081363678 1.00065529346466 0.9991455078125 0.999182283878326 1.0010712146759 0.9991455078125 1.00106537342072 1.0010712146759 0.998774886131287 0.999182283878326 1.0010712146759 1.0009081363678 0.998598992824554 1.0010712146759 0.998774886131287 0.998598992824554 1.00141203403473 1 0.999924659729004 1 1.00068759918213 0.999924659729004 0.999698579311371 1.00068759918213 1.00022339820862 1 1.00068759918213 1 0.998613834381104 1.00068759918213 1.00022339820862 0.998613834381104 0.999956846237183 0.999698579311371 1.00011587142944 1.00022339820862 1.00003612041473 1.00011587142944 0.999854743480682 1.00003612041473 1.00030422210693 1.00022339820862 1.00003612041473 0.999956846237183 0.999581515789032 1.00003612041473 1.00030422210693 0.999581515789032 0.999964773654938 1 0.998613834381104 1 1.00207722187042 0.998613834381104 0.999956846237183 1.00207722187042 0.999671638011932 1 1.00207722187042 1 0.997337937355042 1.00207722187042 0.999671638011932 0.997337937355042 1.00099885463715 0.999956846237183 0.999581515789032 0.999671638011932 1.00095701217651 0.999581515789032 0.999964773654938 1.00095701217651 0.999460399150848 0.999671638011932 1.00095701217651 1.00099885463715 0.998596847057343 1.00095701217651 0.999460399150848 0.998596847057343 1.0009309053421 0.999854743480682 0.999730288982391 1.00030422210693 1.00005233287811 0.999730288982391 1.0009081363678 1.00005233287811 0.999249696731567 1.00030422210693 1.00005233287811 0.999964773654938 1.00002908706665 1.00005233287811 0.999249696731567 1.00002908706665 1.00011694431305 1.0009081363678 0.998598992824554 0.999249696731567 1.00138103961945 0.998598992824554 1.00141203403473 1.00138103961945 0.99855649471283 0.999249696731567 1.00138103961945 1.00011694431305 0.999391198158264 1.00138103961945 0.99855649471283 0.999391198158264 1.00127875804901 0.999964773654938 1.00002908706665 0.999460399150848 1.00008273124695 1.00002908706665 1.00011694431305 1.00008273124695 1.00061106681824 0.999460399150848 1.00008273124695 1.0009309053421 0.999732792377472 1.00008273124695 1.00061106681824 0.999732792377472 0.999345481395721 1.00011694431305 0.999391198158264 1.00061106681824 0.99944669008255 0.999391198158264 1.00127875804901 0.99944669008255 0.99928081035614 1.00061106681824 0.99944669008255 0.999345481395721 1.00103545188904 0.99944669008255 0.99928081035614 1.00103545188904 0.999719679355621 1 1 0.999190151691437 1.00030946731567 1 1 1.00030946731567 1.00039803981781 0.999190151691437 1.00030946731567 1.00106537342072 0.99900883436203 1.00030946731567 1.00039803981781 0.99900883436203 1.00031161308289 1 1 1.00039803981781 0.998993158340454 1 1 0.998993158340454 1.00106418132782 1.00039803981781 0.998993158340454 1.00031161308289 1.00076282024384 0.998993158340454 1.00106418132782 1.00076282024384 0.998627305030823 1.00106537342072 0.99900883436203 0.998774886131287 1.00109302997589 0.99900883436203 1.00031161308289 1.00109302997589 0.999519348144531 0.998774886131287 1.00109302997589 1.00141203403473 0.998943746089935 1.00109302997589 0.999519348144531 0.998943746089935 1.0007061958313 1.00031161308289 1.00076282024384 0.999519348144531 0.999497830867767 1.00076282024384 0.998627305030823 0.999497830867767 1.00127780437469 0.999519348144531 0.999497830867767 1.0007061958313 0.999686777591705 0.999497830867767 1.00127780437469 0.999686777591705 0.99939489364624 1 1 1.00106418132782 0.999616622924805 1 1 0.999616622924805 0.999388635158539 1.00106418132782 0.999616622924805 0.998627305030823 1.00087571144104 0.999616622924805 0.999388635158539 1.00087571144104 1.00023531913757 1 1 0.999388635158539 1.00113952159882 1 1 1.00113952159882 0.999233961105347 0.999388635158539 1.00113952159882 1.00023531913757 0.999130249023438 1.00113952159882 0.999233961105347 0.999130249023438 1.0008100271225 0.998627305030823 1.00087571144104 1.00127780437469 0.998786926269531 1.00087571144104 1.00023531913757 0.998786926269531 1.0002965927124 1.00127780437469 0.998786926269531 0.99939489364624 1.00183176994324 0.998786926269531 1.0002965927124 1.00183176994324 0.998169898986816 1.00023531913757 0.999130249023438 1.0002965927124 1.00078856945038 0.999130249023438 1.0008100271225 1.00078856945038 0.998660326004028 1.0002965927124 1.00078856945038 0.998169898986816 0.999599933624268 1.00078856945038 0.998660326004028 0.999599933624268 1.00281965732574 1.00141203403473 0.998943746089935 0.99855649471283 1.0011385679245 0.998943746089935 1.0007061958313 1.0011385679245 0.998933136463165 0.99855649471283 1.0011385679245 1.00127875804901 0.998189985752106 1.0011385679245 0.998933136463165 0.998189985752106 1.00185596942902 1.0007061958313 0.999686777591705 0.998933136463165 1.00108635425568 0.999686777591705 0.99939489364624 1.00108635425568 0.999876856803894 0.998933136463165 1.00108635425568 1.00185596942902 0.998742878437042 1.00108635425568 0.999876856803894 0.998742878437042 1.00010204315186 1.00127875804901 0.998189985752106 0.99928081035614 1.00232219696045 0.998189985752106 1.00185596942902 1.00232219696045 0.997404158115387 0.99928081035614 1.00232219696045 0.999719679355621 0.998797595500946 1.00232219696045 0.997404158115387 0.998797595500946 1.00215840339661 1.00185596942902 0.998742878437042 0.997404158115387 1.00124704837799 0.998742878437042 1.00010204315186 1.00124704837799 0.999996840953827 0.997404158115387 1.00124704837799 1.00215840339661 0.998013496398926 1.00124704837799 0.999996840953827 0.998013496398926 1.00148236751556 0.99939489364624 1.00183176994324 0.999876856803894 0.998035907745361 1.00183176994324 0.998169898986816 0.998035907745361 1.00289690494537 0.999876856803894 0.998035907745361 1.00010204315186 1.00126552581787 0.998035907745361 1.00289690494537 1.00126552581787 0.997863054275513 0.998169898986816 0.999599933624268 1.00289690494537 0.999545753002167 0.999599933624268 1.00281965732574 0.999545753002167 0.996814787387848 1.00289690494537 0.999545753002167 0.997863054275513 1.00154137611389 0.999545753002167 0.996814787387848 1.00154137611389 1.00081074237823 1.00010204315186 1.00126552581787 0.999996840953827 1.00002801418304 1.00126552581787 0.997863054275513 1.00002801418304 1.00032210350037 0.999996840953827 1.00002801418304 1.00148236751556 0.99874222278595 1.00002801418304 1.00032210350037 0.99874222278595 1.00011098384857 0.997863054275513 1.00154137611389 1.00032210350037 0.997541666030884 1.00154137611389 1.00081074237823 0.997541666030884 1.00290584564209 1.00032210350037 0.997541666030884 1.00011098384857 1.00277197360992 0.997541666030884 1.00290584564209 1.00277197360992 0.995958209037781 1 0.997337937355042 1 1.00286340713501 0.997337937355042 1.00099885463715 1.00286340713501 0.998152136802673 1 1.00286340713501 1 0.997759342193604 1.00286340713501 0.998152136802673 0.997759342193604 1.00237846374512 1.00099885463715 0.998596847057343 0.998152136802673 1.00166010856628 0.998596847057343 1.0009309053421 1.00166010856628 0.998959422111511 0.998152136802673 1.00166010856628 1.00237846374512 0.998131513595581 1.00166010856628 0.998959422111511 0.998131513595581 1.00150728225708 1 0.997759342193604 1 1.00062310695648 0.997759342193604 1.00237846374512 1.00062310695648 0.997967123985291 1 1.00062310695648 1 1.00138199329376 1.00062310695648 0.997967123985291 1.00138199329376 1.00078129768372 1.00237846374512 0.998131513595581 0.997967123985291 1.00196576118469 0.998131513595581 1.00150728225708 1.00196576118469 0.997405827045441 0.997967123985291 1.00196576118469 1.00078129768372 0.998671531677246 1.00196576118469 0.997405827045441 0.998671531677246 1.00288450717926 1.0009309053421 0.999732792377472 0.998959422111511 1.00051128864288 0.999732792377472 0.999345481395721 1.00051128864288 0.999825835227966 0.998959422111511 1.00051128864288 1.00150728225708 0.998905062675476 1.00051128864288 0.999825835227966 0.998905062675476 1.00100159645081 0.999345481395721 1.00103545188904 0.999825835227966 0.999557435512543 1.00103545188904 0.999719679355621 0.999557435512543 1.00137329101562 0.999825835227966 0.999557435512543 1.00100159645081 0.99986344575882 0.999557435512543 1.00137329101562 0.99986344575882 0.998098850250244 1.00150728225708 0.998905062675476 0.997405827045441 1.00213325023651 0.998905062675476 1.00100159645081 1.00213325023651 0.998861491680145 0.997405827045441 1.00213325023651 1.00288450717926 0.997149109840393 1.00213325023651 0.998861491680145 0.997149109840393 1.00147831439972 1.00100159645081 0.99986344575882 0.998861491680145 0.999820649623871 0.99986344575882 0.998098850250244 0.999820649623871 1.00138080120087 0.998861491680145 0.999820649623871 1.00147831439972 0.99982476234436 0.999820649623871 1.00138080120087 0.99982476234436 1.000155210495 1 1.00138199329376 1 0.997388184070587 1.00138199329376 1.00078129768372 0.997388184070587 1.0007928609848 1 0.997388184070587 1 1.00232946872711 0.997388184070587 1.0007928609848 1.00232946872711 0.997923374176025 1.00078129768372 0.998671531677246 1.0007928609848 0.999533474445343 0.998671531677246 1.00288450717926 0.999533474445343 0.999324202537537 1.0007928609848 0.999533474445343 0.997923374176025 1.00232982635498 0.999533474445343 0.999324202537537 1.00232982635498 0.997407078742981 1 1.00232946872711 1 0.999308466911316 1.00232946872711 0.997923374176025 0.999308466911316 1.00254440307617 1 0.999308466911316 1 0.998161673545837 0.999308466911316 1.00254440307617 0.998161673545837 0.998944938182831 0.997923374176025 1.00232982635498 1.00254440307617 0.997739136219025 1.00232982635498 0.997407078742981 0.997739136219025 1.0029604434967 1.00254440307617 0.997739136219025 0.998944938182831 1.00020909309387 0.997739136219025 1.0029604434967 1.00020909309387 0.999514281749725 1.00288450717926 0.997149109840393 0.999324202537537 1.00199258327484 0.997149109840393 1.00147831439972 1.00199258327484 0.997050583362579 0.999324202537537 1.00199258327484 0.997407078742981 1.00039160251617 1.00199258327484 0.997050583362579 1.00039160251617 1.00332748889923 1.00147831439972 0.99982476234436 0.997050583362579 1.00315737724304 0.99982476234436 1.000155210495 1.00315737724304 0.997647404670715 0.997050583362579 1.00315737724304 1.00332748889923 0.994186997413635 1.00315737724304 0.997647404670715 0.994186997413635 1.00456154346466 0.997407078742981 1.00039160251617 1.0029604434967 0.997643828392029 1.00039160251617 1.00332748889923 0.997643828392029 1.00070559978485 1.0029604434967 0.997643828392029 0.999514281749725 1.00255846977234 0.997643828392029 1.00070559978485 1.00255846977234 0.99431186914444 1.00332748889923 0.994186997413635 1.00070559978485 1.00205528736115 0.994186997413635 1.00456154346466 1.00205528736115 0.994959771633148 1.00070559978485 1.00205528736115 0.99431186914444 1.00545120239258 1.00205528736115 0.994959771633148 1.00545120239258 1.00119316577911 0.999719679355621 0.998797595500946 1.00137329101562 0.998420596122742 0.998797595500946 1.00215840339661 0.998420596122742 0.999874651432037 1.00137329101562 0.998420596122742 0.998098850250244 1.00351464748383 0.998420596122742 0.999874651432037 1.00351464748383 0.997830331325531 1.00215840339661 0.998013496398926 0.999874651432037 1.00303411483765 0.998013496398926 1.00148236751556 1.00303411483765 0.99565178155899 0.999874651432037 1.00303411483765 0.997830331325531 0.99798971414566 1.00303411483765 0.99565178155899 0.99798971414566 1.00505793094635 0.998098850250244 1.00351464748383 1.00138080120087 0.997609317302704 1.00351464748383 0.997830331325531 0.997609317302704 1.00298976898193 1.00138080120087 0.997609317302704 1.000155210495 0.999974966049194 0.997609317302704 1.00298976898193 0.999974966049194 0.997409880161285 0.997830331325531 0.99798971414566 1.00298976898193 0.99774158000946 0.99798971414566 1.00505793094635 0.99774158000946 0.999267160892487 1.00298976898193 0.99774158000946 0.997409880161285 1.00628674030304 0.99774158000946 0.999267160892487 1.00628674030304 0.994789958000183 1.00148236751556 0.99874222278595 0.99565178155899 1.00232636928558 0.99874222278595 1.00011098384857 1.00232636928558 1.00095093250275 0.99565178155899 1.00232636928558 1.00505793094635 0.996244430541992 1.00232636928558 1.00095093250275 0.996244430541992 1.00054574012756 1.00011098384857 1.00277197360992 1.00095093250275 0.997854232788086 1.00277197360992 0.995958209037781 0.997854232788086 1.00159358978271 1.00095093250275 0.997854232788086 1.00054574012756 1.00014996528625 0.997854232788086 1.00159358978271 1.00014996528625 0.999800741672516 1.00505793094635 0.996244430541992 0.999267160892487 1.00493919849396 0.996244430541992 1.00054574012756 1.00493919849396 0.993186235427856 0.999267160892487 1.00493919849396 0.994789958000183 0.996889173984528 1.00493919849396 0.993186235427856 0.996889173984528 1.01084995269775 1.00054574012756 1.00014996528625 0.993186235427856 1.00355160236359 1.00014996528625 0.999800741672516 1.00355160236359 1.00281524658203 0.993186235427856 1.00355160236359 1.01084995269775 0.99207466840744 1.00355160236359 1.00281524658203 0.99207466840744 0.997950434684753 1.000155210495 0.999974966049194 0.997647404670715 1.0005019903183 0.999974966049194 0.997409880161285 1.0005019903183 1.00220668315887 0.997647404670715 1.0005019903183 1.00456154346466 0.998710513114929 1.0005019903183 1.00220668315887 0.998710513114929 1.00004947185516 0.997409880161285 1.00628674030304 1.00220668315887 0.995019972324371 1.00628674030304 0.994789958000183 0.995019972324371 1.00604104995728 1.00220668315887 0.995019972324371 1.00004947185516 0.9992955327034 0.995019972324371 1.00604104995728 0.9992955327034 0.997676014900208 1.00456154346466 0.998710513114929 0.994959771633148 1.0071234703064 0.998710513114929 1.00004947185516 1.0071234703064 0.992673337459564 0.994959771633148 1.0071234703064 1.00119316577911 0.989814162254333 1.0071234703064 0.992673337459564 0.989814162254333 1.01322710514069 1.00004947185516 0.9992955327034 0.992673337459564 1.00487267971039 0.9992955327034 0.997676014900208 1.00487267971039 1.00075483322144 0.992673337459564 1.00487267971039 1.01322710514069 0.991478443145752 1.00487267971039 1.00075483322144 0.991478443145752 1.00408589839935 0.994789958000183 0.996889173984528 1.00604104995728 0.996598124504089 0.996889173984528 1.01084995269775 0.996598124504089 0.997086703777313 1.00604104995728 0.996598124504089 0.997676014900208 1.01015508174896 0.996598124504089 0.997086703777313 1.01015508174896 0.98823070526123 1.01084995269775 0.99207466840744 0.997086703777313 1.00927436351776 0.99207466840744 0.997950434684753 1.00927436351776 0.989727675914764 0.997086703777313 1.00927436351776 0.98823070526123 0.997270882129669 1.00927436351776 0.989727675914764 0.997270882129669 1.02043867111206 0.997676014900208 1.01015508174896 1.00075483322144 0.991409957408905 1.01015508174896 0.98823070526123 0.991409957408905 1.01453375816345 1.00075483322144 0.991409957408905 1.00408589839935 0.996029734611511 0.991409957408905 1.01453375816345 0.996029734611511 0.996385276317596 0.98823070526123 0.997270882129669 1.01453375816345 0.987358331680298 0.997270882129669 1.02043867111206 0.987358331680298 1.00088346004486 1.01453375816345 0.987358331680298 0.996385276317596 1.02874386310577 0.987358331680298 1.00088346004486 1.02874386310577 0.948796033859253 1 1 0.999233961105347 0.999727964401245 1 1 0.999727964401245 1.00135231018066 0.999233961105347 0.999727964401245 1.0008100271225 0.999427020549774 0.999727964401245 1.00135231018066 0.999427020549774 0.999643802642822 1 1 1.00135231018066 0.998901426792145 1 1 0.998901426792145 1.00091779232025 1.00135231018066 0.998901426792145 0.999643802642822 1.00167095661163 0.998901426792145 1.00091779232025 1.00167095661163 0.99567973613739 1.0008100271225 0.999427020549774 0.998660326004028 1.0010005235672 0.999427020549774 0.999643802642822 1.0010005235672 1.00063562393188 0.998660326004028 1.0010005235672 1.00281965732574 0.998001992702484 1.0010005235672 1.00063562393188 0.998001992702484 0.998150289058685 0.999643802642822 1.00167095661163 1.00063562393188 0.998340547084808 1.00167095661163 0.99567973613739 0.998340547084808 1.00638008117676 1.00063562393188 0.998340547084808 0.998150289058685 1.00156211853027 0.998340547084808 1.00638008117676 1.00156211853027 0.991661250591278 1 1 1.00091779232025 1.01002585887909 1 1 1.01002585887909 1.01387786865234 1.00091779232025 1.01002585887909 0.99567973613739 0.986628174781799 1.01002585887909 1.01387786865234 0.986628174781799 0.987707197666168 1 1 1.01387786865234 1.00757360458374 1 1 1.00757360458374 0.999655663967133 1.01387786865234 1.00757360458374 0.987707197666168 0.997293531894684 1.00757360458374 0.999655663967133 0.997293531894684 1.00498747825623 0.99567973613739 0.986628174781799 1.00638008117676 1.01829981803894 0.986628174781799 0.987707197666168 1.01829981803894 1.01846313476562 1.00638008117676 1.01829981803894 0.991661250591278 0.975861191749573 1.01829981803894 1.01846313476562 0.975861191749573 0.971529304981232 0.987707197666168 0.997293531894684 1.01846313476562 1.00850415229797 0.997293531894684 1.00498747825623 1.00850415229797 1.00013625621796 1.01846313476562 1.00850415229797 0.971529304981232 0.977273225784302 1.00850415229797 1.00013625621796 0.977273225784302 0.982515871524811 1.00281965732574 0.998001992702484 0.996814787387848 1.00296854972839 0.998001992702484 0.998150289058685 1.00296854972839 1.00171637535095 0.996814787387848 1.00296854972839 1.00081074237823 0.996736109256744 1.00296854972839 1.00171637535095 0.996736109256744 1.00161421298981 0.998150289058685 1.00156211853027 1.00171637535095 0.9995938539505 1.00156211853027 0.991661250591278 0.9995938539505 1.01338803768158 1.00171637535095 0.9995938539505 1.00161421298981 0.997256457805634 0.9995938539505 1.01338803768158 0.997256457805634 0.975373327732086 1.00081074237823 0.996736109256744 1.00290584564209 1.00248599052429 0.996736109256744 1.00161421298981 1.00248599052429 0.994444072246552 1.00290584564209 1.00248599052429 0.995958209037781 0.999083578586578 1.00248599052429 0.994444072246552 0.999083578586578 1.00391125679016 1.00161421298981 0.997256457805634 0.994444072246552 1.00886309146881 0.997256457805634 0.975373327732086 1.00886309146881 1.03850150108337 0.994444072246552 1.00886309146881 1.00391125679016 0.981911838054657 1.00886309146881 1.03850150108337 0.981911838054657 0.954010128974915 0.991661250