# vtk DataFile Version 3.0
#This file was generated by the deal.II library on 2015/6/29 at 21:51: 5
ASCII
DATASET UNSTRUCTURED_GRID

POINTS 4096 double
0 0 0
0.03125 0 0
0 0.03125 0
0.03125 0.03125 0
0.03125 0 0
0.0625 0 0
0.03125 0.03125 0
0.0625 0.03125 0
0 0.03125 0
0.03125 0.03125 0
0 0.0625 0
0.03125 0.0625 0
0.03125 0.03125 0
0.0625 0.03125 0
0.03125 0.0625 0
0.0625 0.0625 0
0.0625 0 0
0.09375 0 0
0.0625 0.03125 0
0.09375 0.03125 0
0.09375 0 0
0.125 0 0
0.09375 0.03125 0
0.125 0.03125 0
0.0625 0.03125 0
0.09375 0.03125 0
0.0625 0.0625 0
0.09375 0.0625 0
0.09375 0.03125 0
0.125 0.03125 0
0.09375 0.0625 0
0.125 0.0625 0
0 0.0625 0
0.03125 0.0625 0
0 0.09375 0
0.03125 0.09375 0
0.03125 0.0625 0
0.0625 0.0625 0
0.03125 0.09375 0
0.0625 0.09375 0
0 0.09375 0
0.03125 0.09375 0
0 0.125 0
0.03125 0.125 0
0.03125 0.09375 0
0.0625 0.09375 0
0.03125 0.125 0
0.0625 0.125 0
0.0625 0.0625 0
0.09375 0.0625 0
0.0625 0.09375 0
0.09375 0.09375 0
0.09375 0.0625 0
0.125 0.0625 0
0.09375 0.09375 0
0.125 0.09375 0
0.0625 0.09375 0
0.09375 0.09375 0
0.0625 0.125 0
0.09375 0.125 0
0.09375 0.09375 0
0.125 0.09375 0
0.09375 0.125 0
0.125 0.125 0
0.125 0 0
0.15625 0 0
0.125 0.03125 0
0.15625 0.03125 0
0.15625 0 0
0.1875 0 0
0.15625 0.03125 0
0.1875 0.03125 0
0.125 0.03125 0
0.15625 0.03125 0
0.125 0.0625 0
0.15625 0.0625 0
0.15625 0.03125 0
0.1875 0.03125 0
0.15625 0.0625 0
0.1875 0.0625 0
0.1875 0 0
0.21875 0 0
0.1875 0.03125 0
0.21875 0.03125 0
0.21875 0 0
0.25 0 0
0.21875 0.03125 0
0.25 0.03125 0
0.1875 0.03125 0
0.21875 0.03125 0
0.1875 0.0625 0
0.21875 0.0625 0
0.21875 0.03125 0
0.25 0.03125 0
0.21875 0.0625 0
0.25 0.0625 0
0.125 0.0625 0
0.15625 0.0625 0
0.125 0.09375 0
0.15625 0.09375 0
0.15625 0.0625 0
0.1875 0.0625 0
0.15625 0.09375 0
0.1875 0.09375 0
0.125 0.09375 0
0.15625 0.09375 0
0.125 0.125 0
0.15625 0.125 0
0.15625 0.09375 0
0.1875 0.09375 0
0.15625 0.125 0
0.1875 0.125 0
0.1875 0.0625 0
0.21875 0.0625 0
0.1875 0.09375 0
0.21875 0.09375 0
0.21875 0.0625 0
0.25 0.0625 0
0.21875 0.09375 0
0.25 0.09375 0
0.1875 0.09375 0
0.21875 0.09375 0
0.1875 0.125 0
0.21875 0.125 0
0.21875 0.09375 0
0.25 0.09375 0
0.21875 0.125 0
0.25 0.125 0
0 0.125 0
0.03125 0.125 0
0 0.15625 0
0.03125 0.15625 0
0.03125 0.125 0
0.0625 0.125 0
0.03125 0.15625 0
0.0625 0.15625 0
0 0.15625 0
0.03125 0.15625 0
0 0.1875 0
0.03125 0.1875 0
0.03125 0.15625 0
0.0625 0.15625 0
0.03125 0.1875 0
0.0625 0.1875 0
0.0625 0.125 0
0.09375 0.125 0
0.0625 0.15625 0
0.09375 0.15625 0
0.09375 0.125 0
0.125 0.125 0
0.09375 0.15625 0
0.125 0.15625 0
0.0625 0.15625 0
0.09375 0.15625 0
0.0625 0.1875 0
0.09375 0.1875 0
0.09375 0.15625 0
0.125 0.15625 0
0.09375 0.1875 0
0.125 0.1875 0
0 0.1875 0
0.03125 0.1875 0
0 0.21875 0
0.03125 0.21875 0
0.03125 0.1875 0
0.0625 0.1875 0
0.03125 0.21875 0
0.0625 0.21875 0
0 0.21875 0
0.03125 0.21875 0
0 0.25 0
0.03125 0.25 0
0.03125 0.21875 0
0.0625 0.21875 0
0.03125 0.25 0
0.0625 0.25 0
0.0625 0.1875 0
0.09375 0.1875 0
0.0625 0.21875 0
0.09375 0.21875 0
0.09375 0.1875 0
0.125 0.1875 0
0.09375 0.21875 0
0.125 0.21875 0
0.0625 0.21875 0
0.09375 0.21875 0
0.0625 0.25 0
0.09375 0.25 0
0.09375 0.21875 0
0.125 0.21875 0
0.09375 0.25 0
0.125 0.25 0
0.125 0.125 0
0.15625 0.125 0
0.125 0.15625 0
0.15625 0.15625 0
0.15625 0.125 0
0.1875 0.125 0
0.15625 0.15625 0
0.1875 0.15625 0
0.125 0.15625 0
0.15625 0.15625 0
0.125 0.1875 0
0.15625 0.1875 0
0.15625 0.15625 0
0.1875 0.15625 0
0.15625 0.1875 0
0.1875 0.1875 0
0.1875 0.125 0
0.21875 0.125 0
0.1875 0.15625 0
0.21875 0.15625 0
0.21875 0.125 0
0.25 0.125 0
0.21875 0.15625 0
0.25 0.15625 0
0.1875 0.15625 0
0.21875 0.15625 0
0.1875 0.1875 0
0.21875 0.1875 0
0.21875 0.15625 0
0.25 0.15625 0
0.21875 0.1875 0
0.25 0.1875 0
0.125 0.1875 0
0.15625 0.1875 0
0.125 0.21875 0
0.15625 0.21875 0
0.15625 0.1875 0
0.1875 0.1875 0
0.15625 0.21875 0
0.1875 0.21875 0
0.125 0.21875 0
0.15625 0.21875 0
0.125 0.25 0
0.15625 0.25 0
0.15625 0.21875 0
0.1875 0.21875 0
0.15625 0.25 0
0.1875 0.25 0
0.1875 0.1875 0
0.21875 0.1875 0
0.1875 0.21875 0
0.21875 0.21875 0
0.21875 0.1875 0
0.25 0.1875 0
0.21875 0.21875 0
0.25 0.21875 0
0.1875 0.21875 0
0.21875 0.21875 0
0.1875 0.25 0
0.21875 0.25 0
0.21875 0.21875 0
0.25 0.21875 0
0.21875 0.25 0
0.25 0.25 0
0.25 0 0
0.28125 0 0
0.25 0.03125 0
0.28125 0.03125 0
0.28125 0 0
0.3125 0 0
0.28125 0.03125 0
0.3125 0.03125 0
0.25 0.03125 0
0.28125 0.03125 0
0.25 0.0625 0
0.28125 0.0625 0
0.28125 0.03125 0
0.3125 0.03125 0
0.28125 0.0625 0
0.3125 0.0625 0
0.3125 0 0
0.34375 0 0
0.3125 0.03125 0
0.34375 0.03125 0
0.34375 0 0
0.375 0 0
0.34375 0.03125 0
0.375 0.03125 0
0.3125 0.03125 0
0.34375 0.03125 0
0.3125 0.0625 0
0.34375 0.0625 0
0.34375 0.03125 0
0.375 0.03125 0
0.34375 0.0625 0
0.375 0.0625 0
0.25 0.0625 0
0.28125 0.0625 0
0.25 0.09375 0
0.28125 0.09375 0
0.28125 0.0625 0
0.3125 0.0625 0
0.28125 0.09375 0
0.3125 0.09375 0
0.25 0.09375 0
0.28125 0.09375 0
0.25 0.125 0
0.28125 0.125 0
0.28125 0.09375 0
0.3125 0.09375 0
0.28125 0.125 0
0.3125 0.125 0
0.3125 0.0625 0
0.34375 0.0625 0
0.3125 0.09375 0
0.34375 0.09375 0
0.34375 0.0625 0
0.375 0.0625 0
0.34375 0.09375 0
0.375 0.09375 0
0.3125 0.09375 0
0.34375 0.09375 0
0.3125 0.125 0
0.34375 0.125 0
0.34375 0.09375 0
0.375 0.09375 0
0.34375 0.125 0
0.375 0.125 0
0.375 0 0
0.40625 0 0
0.375 0.03125 0
0.40625 0.03125 0
0.40625 0 0
0.4375 0 0
0.40625 0.03125 0
0.4375 0.03125 0
0.375 0.03125 0
0.40625 0.03125 0
0.375 0.0625 0
0.40625 0.0625 0
0.40625 0.03125 0
0.4375 0.03125 0
0.40625 0.0625 0
0.4375 0.0625 0
0.4375 0 0
0.46875 0 0
0.4375 0.03125 0
0.46875 0.03125 0
0.46875 0 0
0.5 0 0
0.46875 0.03125 0
0.5 0.03125 0
0.4375 0.03125 0
0.46875 0.03125 0
0.4375 0.0625 0
0.46875 0.0625 0
0.46875 0.03125 0
0.5 0.03125 0
0.46875 0.0625 0
0.5 0.0625 0
0.375 0.0625 0
0.40625 0.0625 0
0.375 0.09375 0
0.40625 0.09375 0
0.40625 0.0625 0
0.4375 0.0625 0
0.40625 0.09375 0
0.4375 0.09375 0
0.375 0.09375 0
0.40625 0.09375 0
0.375 0.125 0
0.40625 0.125 0
0.40625 0.09375 0
0.4375 0.09375 0
0.40625 0.125 0
0.4375 0.125 0
0.4375 0.0625 0
0.46875 0.0625 0
0.4375 0.09375 0
0.46875 0.09375 0
0.46875 0.0625 0
0.5 0.0625 0
0.46875 0.09375 0
0.5 0.09375 0
0.4375 0.09375 0
0.46875 0.09375 0
0.4375 0.125 0
0.46875 0.125 0
0.46875 0.09375 0
0.5 0.09375 0
0.46875 0.125 0
0.5 0.125 0
0.25 0.125 0
0.28125 0.125 0
0.25 0.15625 0
0.28125 0.15625 0
0.28125 0.125 0
0.3125 0.125 0
0.28125 0.15625 0
0.3125 0.15625 0
0.25 0.15625 0
0.28125 0.15625 0
0.25 0.1875 0
0.28125 0.1875 0
0.28125 0.15625 0
0.3125 0.15625 0
0.28125 0.1875 0
0.3125 0.1875 0
0.3125 0.125 0
0.34375 0.125 0
0.3125 0.15625 0
0.34375 0.15625 0
0.34375 0.125 0
0.375 0.125 0
0.34375 0.15625 0
0.375 0.15625 0
0.3125 0.15625 0
0.34375 0.15625 0
0.3125 0.1875 0
0.34375 0.1875 0
0.34375 0.15625 0
0.375 0.15625 0
0.34375 0.1875 0
0.375 0.1875 0
0.25 0.1875 0
0.28125 0.1875 0
0.25 0.21875 0
0.28125 0.21875 0
0.28125 0.1875 0
0.3125 0.1875 0
0.28125 0.21875 0
0.3125 0.21875 0
0.25 0.21875 0
0.28125 0.21875 0
0.25 0.25 0
0.28125 0.25 0
0.28125 0.21875 0
0.3125 0.21875 0
0.28125 0.25 0
0.3125 0.25 0
0.3125 0.1875 0
0.34375 0.1875 0
0.3125 0.21875 0
0.34375 0.21875 0
0.34375 0.1875 0
0.375 0.1875 0
0.34375 0.21875 0
0.375 0.21875 0
0.3125 0.21875 0
0.34375 0.21875 0
0.3125 0.25 0
0.34375 0.25 0
0.34375 0.21875 0
0.375 0.21875 0
0.34375 0.25 0
0.375 0.25 0
0.375 0.125 0
0.40625 0.125 0
0.375 0.15625 0
0.40625 0.15625 0
0.40625 0.125 0
0.4375 0.125 0
0.40625 0.15625 0
0.4375 0.15625 0
0.375 0.15625 0
0.40625 0.15625 0
0.375 0.1875 0
0.40625 0.1875 0
0.40625 0.15625 0
0.4375 0.15625 0
0.40625 0.1875 0
0.4375 0.1875 0
0.4375 0.125 0
0.46875 0.125 0
0.4375 0.15625 0
0.46875 0.15625 0
0.46875 0.125 0
0.5 0.125 0
0.46875 0.15625 0
0.5 0.15625 0
0.4375 0.15625 0
0.46875 0.15625 0
0.4375 0.1875 0
0.46875 0.1875 0
0.46875 0.15625 0
0.5 0.15625 0
0.46875 0.1875 0
0.5 0.1875 0
0.375 0.1875 0
0.40625 0.1875 0
0.375 0.21875 0
0.40625 0.21875 0
0.40625 0.1875 0
0.4375 0.1875 0
0.40625 0.21875 0
0.4375 0.21875 0
0.375 0.21875 0
0.40625 0.21875 0
0.375 0.25 0
0.40625 0.25 0
0.40625 0.21875 0
0.4375 0.21875 0
0.40625 0.25 0
0.4375 0.25 0
0.4375 0.1875 0
0.46875 0.1875 0
0.4375 0.21875 0
0.46875 0.21875 0
0.46875 0.1875 0
0.5 0.1875 0
0.46875 0.21875 0
0.5 0.21875 0
0.4375 0.21875 0
0.46875 0.21875 0
0.4375 0.25 0
0.46875 0.25 0
0.46875 0.21875 0
0.5 0.21875 0
0.46875 0.25 0
0.5 0.25 0
0 0.25 0
0.03125 0.25 0
0 0.28125 0
0.03125 0.28125 0
0.03125 0.25 0
0.0625 0.25 0
0.03125 0.28125 0
0.0625 0.28125 0
0 0.28125 0
0.03125 0.28125 0
0 0.3125 0
0.03125 0.3125 0
0.03125 0.28125 0
0.0625 0.28125 0
0.03125 0.3125 0
0.0625 0.3125 0
0.0625 0.25 0
0.09375 0.25 0
0.0625 0.28125 0
0.09375 0.28125 0
0.09375 0.25 0
0.125 0.25 0
0.09375 0.28125 0
0.125 0.28125 0
0.0625 0.28125 0
0.09375 0.28125 0
0.0625 0.3125 0
0.09375 0.3125 0
0.09375 0.28125 0
0.125 0.28125 0
0.09375 0.3125 0
0.125 0.3125 0
0 0.3125 0
0.03125 0.3125 0
0 0.34375 0
0.03125 0.34375 0
0.03125 0.3125 0
0.0625 0.3125 0
0.03125 0.34375 0
0.0625 0.34375 0
0 0.34375 0
0.03125 0.34375 0
0 0.375 0
0.03125 0.375 0
0.03125 0.34375 0
0.0625 0.34375 0
0.03125 0.375 0
0.0625 0.375 0
0.0625 0.3125 0
0.09375 0.3125 0
0.0625 0.34375 0
0.09375 0.34375 0
0.09375 0.3125 0
0.125 0.3125 0
0.09375 0.34375 0
0.125 0.34375 0
0.0625 0.34375 0
0.09375 0.34375 0
0.0625 0.375 0
0.09375 0.375 0
0.09375 0.34375 0
0.125 0.34375 0
0.09375 0.375 0
0.125 0.375 0
0.125 0.25 0
0.15625 0.25 0
0.125 0.28125 0
0.15625 0.28125 0
0.15625 0.25 0
0.1875 0.25 0
0.15625 0.28125 0
0.1875 0.28125 0
0.125 0.28125 0
0.15625 0.28125 0
0.125 0.3125 0
0.15625 0.3125 0
0.15625 0.28125 0
0.1875 0.28125 0
0.15625 0.3125 0
0.1875 0.3125 0
0.1875 0.25 0
0.21875 0.25 0
0.1875 0.28125 0
0.21875 0.28125 0
0.21875 0.25 0
0.25 0.25 0
0.21875 0.28125 0
0.25 0.28125 0
0.1875 0.28125 0
0.21875 0.28125 0
0.1875 0.3125 0
0.21875 0.3125 0
0.21875 0.28125 0
0.25 0.28125 0
0.21875 0.3125 0
0.25 0.3125 0
0.125 0.3125 0
0.15625 0.3125 0
0.125 0.34375 0
0.15625 0.34375 0
0.15625 0.3125 0
0.1875 0.3125 0
0.15625 0.34375 0
0.1875 0.34375 0
0.125 0.34375 0
[...]
POINT_DATA 4096
SCALARS flux double 1
LOOKUP_TABLE default
1 1.00142538547516 1 1.00142538547516 1.00142538547516 0.999696671962738 1.00142538547516 0.999696671962738 1 1.00142538547516 1 1.00142538547516 1.00142538547516 0.999696671962738 1.00142538547516 0.999696671962738 0.999696671962738 0.996014833450317 0.999696671962738 0.996014833450317 0.996014833450317 1.00564694404602 0.996014833450317 1.00564694404602 0.999696671962738 0.996014833450317 0.999696671962738 0.996014833450317 0.996014833450317 1.00564694404602 0.996014833450317 1.00564694404602 1 1.00142538547516 1 1.00142538547516 1.00142538547516 0.999696671962738 1.00142538547516 0.999696671962738 1 1.00142538547516 1 1.00142538547516 1.00142538547516 0.999696671962738 1.00142538547516 0.999696671962738 0.999696671962738 0.996014833450317 0.999696671962738 0.996014833450317 0.996014833450317 1.00564694404602 0.996014833450317 1.00564694404602 0.999696671962738 0.996014833450317 0.999696671962738 0.996014833450317 0.996014833450317 1.00564694404602 0.996014833450317 1.00564694404602 1.00564694404602 1.00041615962982 1.00564694404602 1.00041615962982 1.00041615962982 0.990740239620209 1.00041615962982 0.990740239620209 1.00564694404602 1.00041615962982 1.00564694404602 1.00041615962982 1.00041615962982 0.990740239620209 1.00041615962982 0.990740239620209 0.990740239620209 1.00872015953064 0.990740239620209 1.00872015953064 1.00872015953064 1.00458955764771 1.00872015953064 1.00458955764771 0.990740239620209 1.00872015953064 0.990740239620209 1.00872015953064 1.00872015953064 1.00458955764771 1.00872015953064 1.00458955764771 1.00564694404602 1.00041615962982 1.00564694404602 1.00041615962982 1.00041615962982 0.990740239620209 1.00041615962982 0.990740239620209 1.00564694404602 1.00041615962982 1.00564694404602 1.00041615962982 1.00041615962982 0.990740239620209 1.00041615962982 0.990740239620209 0.990740239620209 1.00872015953064 0.990740239620209 1.00872015953064 1.00872015953064 1.00458955764771 1.00872015953064 1.00458955764771 0.990740239620209 1.00872015953064 0.990740239620209 1.00872015953064 1.00872015953064 1.00458955764771 1.00872015953064 1.00458955764771 1 1.00142538547516 1 1.00142538547516 1.00142538547516 0.999696671962738 1.00142538547516 0.999696671962738 1 1.00142538547516 1 1.00142538547516 1.00142538547516 0.999696671962738 1.00142538547516 0.999696612358093 0.999696671962738 0.996014833450317 0.999696671962738 0.996014833450317 0.996014833450317 1.00564694404602 0.996014833450317 1.00564694404602 0.999696671962738 0.996014833450317 0.999696612358093 0.996014893054962 0.996014833450317 1.00564694404602 0.996014893054962 1.00564694404602 1 1.00142538547516 1 1.00142526626587 1.00142538547516 0.999696612358093 1.00142526626587 0.999696731567383 1 1.00142526626587 1 1.00142538547516 1.00142526626587 0.999696731567383 1.00142538547516 0.999696314334869 0.999696612358093 0.996014893054962 0.999696731567383 0.996014714241028 0.996014893054962 1.00564694404602 0.996014714241028 1.00564694404602 0.999696731567383 0.996014714241028 0.999696314334869 0.99601536989212 0.996014714241028 1.00564694404602 0.99601536989212 1.00564706325531 1.00564694404602 1.00041615962982 1.00564694404602 1.00041615962982 1.00041615962982 0.990740239620209 1.00041615962982 0.990740239620209 1.00564694404602 1.00041615962982 1.00564694404602 1.00041615962982 1.00041615962982 0.990740239620209 1.00041615962982 0.990740239620209 0.990740239620209 1.00872015953064 0.990740239620209 1.00872015953064 1.00872015953064 1.00458955764771 1.00872015953064 1.00458955764771 0.990740239620209 1.00872015953064 0.990740239620209 1.00872015953064 1.00872015953064 1.00458955764771 1.00872015953064 1.00458967685699 1.00564694404602 1.00041615962982 1.00564694404602 1.00041615962982 1.00041615962982 0.990740239620209 1.00041615962982 0.990740239620209 1.00564694404602 1.00041615962982 1.00564706325531 1.00041615962982 1.00041615962982 0.990740239620209 1.00041615962982 0.990740180015564 0.990740239620209 1.00872015953064 0.990740239620209 1.00872015953064 1.00872015953064 1.00458967685699 1.00872015953064 1.00458955764771 0.990740239620209 1.00872015953064 0.990740180015564 1.00871992111206 1.00872015953064 1.00458955764771 1.00871992111206 1.00459003448486 1.00458955764771 0.984096646308899 1.00458955764771 0.984096646308899 0.984096646308899 1.00763607025146 0.984096646308899 1.00763607025146 1.00458955764771 0.984096646308899 1.00458955764771 0.984096646308899 0.984096646308899 1.00763607025146 0.984096646308899 1.00763607025146 1.00763607025146 1.0142570734024 1.00763607025146 1.0142570734024 1.0142570734024 0.979331970214844 1.0142570734024 0.979331970214844 1.00763607025146 1.0142570734024 1.00763607025146 1.0142570734024 1.0142570734024 0.979331970214844 1.0142570734024 0.979331970214844 1.00458955764771 0.984096646308899 1.00458955764771 0.984096646308899 0.984096646308899 1.00763607025146 0.984096646308899 1.00763607025146 1.00458955764771 0.984096646308899 1.00458955764771 0.984096646308899 0.984096646308899 1.00763607025146 0.984096646308899 1.00763607025146 1.00763607025146 1.0142570734024 1.00763607025146 1.0142570734024 1.0142570734024 0.979331970214844 1.0142570734024 0.979331970214844 1.00763607025146 1.0142570734024 1.00763607025146 1.0142570734024 1.0142570734024 0.979331970214844 1.0142570734024 0.979331970214844 0.979331970214844 0.997162103652954 0.979331970214844 0.997162103652954 0.997162103652954 1.02754044532776 0.997162103652954 1.02754044532776 0.979331970214844 0.997162103652954 0.979331970214844 0.997162103652954 0.997162103652954 1.02754044532776 0.997162103652954 1.02754044532776 1.02754044532776 0.986092567443848 1.02754044532776 0.986092567443848 0.986092567443848 0.974265277385712 0.986092567443848 0.974265277385712 1.02754044532776 0.986092567443848 1.02754044532776 0.986092567443848 0.986092567443848 0.974265277385712 0.986092567443848 0.974265277385712 0.979331970214844 0.997162103652954 0.979331970214844 0.997162103652954 0.997162103652954 1.02754044532776 0.997162103652954 1.02754044532776 0.979331970214844 0.997162103652954 0.979331970214844 0.997162103652954 0.997162103652954 1.02754044532776 0.997162103652954 1.02754044532776 1.02754044532776 0.986092567443848 1.02754044532776 0.986092567443848 0.986092567443848 0.974265277385712 0.986092567443848 0.974265277385712 1.02754044532776 0.986092567443848 1.02754044532776 0.986092567443848 0.986092567443848 0.974265277385712 0.986092567443848 0.974265277385712 1.00458955764771 0.984096646308899 1.00458955764771 0.984096646308899 0.984096646308899 1.00763607025146 0.984096646308899 1.00763595104218 1.00458955764771 0.984096646308899 1.00458967685699 0.984096646308899 0.984096646308899 1.00763595104218 0.984096646308899 1.00763607025146 1.00763607025146 1.0142570734024 1.00763595104218 1.0142570734024 1.0142570734024 0.979331970214844 1.0142570734024 0.979331970214844 1.00763595104218 1.0142570734024 1.00763607025146 1.0142570734024 1.0142570734024 0.979331970214844 1.0142570734024 0.979331970214844 1.00458967685699 0.984096646308899 1.00458955764771 0.984096527099609 0.984096646308899 1.00763607025146 0.984096527099609 1.00763595104218 1.00458955764771 0.984096527099609 1.00459003448486 0.984097003936768 0.984096527099609 1.00763595104218 0.984097003936768 1.00763607025146 1.00763607025146 1.0142570734024 1.00763595104218 1.01425695419312 1.0142570734024 0.979331970214844 1.01425695419312 0.979332029819489 1.00763595104218 1.01425695419312 1.00763607025146 1.01425755023956 1.01425695419312 0.979332029819489 1.01425755023956 0.979331731796265 0.979331970214844 0.997162103652954 0.979331970214844 0.997162103652954 0.997162103652954 1.02754044532776 0.997162103652954 1.02754044532776 0.979331970214844 0.997162103652954 0.979331970214844 0.997162103652954 0.997162103652954 1.02754044532776 0.997162103652954 1.02754044532776 1.02754044532776 0.986092567443848 1.02754044532776 0.986092627048492 0.986092567443848 0.974265277385712 0.986092627048492 0.974265277385712 1.02754044532776 0.986092627048492 1.02754044532776 0.986092567443848 0.986092627048492 0.974265277385712 0.986092567443848 0.974265336990356 0.979331970214844 0.997162103652954 0.979332029819489 0.997162044048309 0.997162103652954 1.02754044532776 0.997162044048309 1.02754044532776 0.979332029819489 0.997162044048309 0.979331731796265 0.997162222862244 0.997162044048309 1.02754044532776 0.997162222862244 1.02754044532776 1.02754044532776 0.986092567443848 1.02754044532776 0.986092627048492 0.986092567443848 0.974265336990356 0.986092627048492 0.974265217781067 1.02754044532776 0.986092627048492 1.02754044532776 0.986092388629913 0.986092627048492 0.974265217781067 0.986092388629913 0.974265515804291 1 1.00142538547516 1 1.00142502784729 1.00142538547516 0.999696314334869 1.00142502784729 0.999698042869568 1 1.00142502784729 1 1.00142645835876 1.00142502784729 0.999698042869568 1.00142645835876 0.999691545963287 0.999696314334869 0.99601536989212 0.999698042869568 0.996012985706329 0.99601536989212 1.00564706325531 0.996012985706329 1.00564658641815 0.999698042869568 0.996012985706329 0.999691545963287 0.996021866798401 0.996012985706329 1.00564658641815 0.996021866798401 1.0056483745575 1 1.00142645835876 1 1.00142133235931 1.00142645835876 0.999691545963287 1.00142133235931 0.999715745449066 1 1.00142133235931 1 1.00144016742706 1.00142133235931 0.999715745449066 1.00144016742706 0.999625444412231 0.999691545963287 0.996021866798401 0.999715745449066 0.995988726615906 0.996021866798401 1.0056483745575 0.995988726615906 1.00564157962799 0.999715745449066 0.995988726615906 0.999625444412231 0.996112287044525 0.995988726615906 1.00564157962799 0.996112287044525 1.00566685199738 1.00564706325531 1.00041615962982 1.00564658641815 1.0004163980484 1.00041615962982 0.990740180015564 1.0004163980484 0.990740358829498 1.00564658641815 1.0004163980484 1.0056483745575 1.00041544437408 1.0004163980484 0.990740358829498 1.00041544437408 0.990739703178406 0.990740180015564 1.00871992111206 0.990740358829498 1.00872111320496 1.00871992111206 1.00459003448486 1.00872111320496 1.00458824634552 0.990740358829498 1.00872111320496 0.990739703178406 1.00871670246124 1.00872111320496 1.00458824634552 1.00871670246124 1.00459480285645 1.0056483745575 1.00041544437408 1.00564157962799 1.00041890144348 1.00041544437408 0.990739703178406 1.00041890144348 0.990742206573486 1.00564157962799 1.00041890144348 1.00566685199738 1.00040590763092 1.00041890144348 0.990742206573486 1.00040590763092 0.990732789039612 0.990739703178406 1.00871670246124 0.990742206573486 1.0087331533432 1.00871670246124 1.00459480285645 1.0087331533432 1.0045702457428 0.990742206573486 1.0087331533432 0.990732789039612 1.00867164134979 1.0087331533432 1.0045702457428 1.00867164134979 1.00466167926788 1 1.00144016742706 1 1.00137007236481 1.00144016742706 0.999625444412231 1.00137007236481 0.999962508678436 1 1.00137007236481 1 1.00163149833679 1.00137007236481 0.999962508678436 1.00163149833679 0.998704612255096 0.999625444412231 0.996112287044525 0.999962508678436 0.995651125907898 0.996112287044525 1.00566685199738 0.995651125907898 1.00557243824005 0.999962508678436 0.995651125907898 0.998704612255096 0.997372210025787 0.995651125907898 1.00557243824005 0.997372210025787 1.00592517852783 1 1.00163149833679 1 1.00065612792969 1.00163149833679 0.998704612255096 1.00065612792969 1.00339901447296 1 1.00065612792969 1 1.00429606437683 1.00065612792969 1.00339901447296 1.00429606437683 0.985879182815552 0.998704612255096 0.997372210025787 1.00339901447296 0.990949094295502 0.997372210025787 1.00592517852783 0.990949094295502 1.00460863113403 1.00339901447296 0.990949094295502 0.985879182815552 1.01492035388947 0.990949094295502 1.00460863113403 1.01492035388947 1.00952184200287 1.00566685199738 1.00040590763092 1.00557243824005 1.00045454502106 1.00040590763092 0.990732789039612 1.00045454502106 0.990768015384674 1.00557243824005 1.00045454502106 1.00592517852783 1.00027298927307 1.00045454502106 0.990768015384674 1.00027298927307 0.990636646747589 0.990732789039612 1.00867164134979 0.990768015384674 1.00890123844147 1.00867164134979 1.00466167926788 1.00890123844147 1.00432074069977 0.990768015384674 1.00890123844147 0.990636646747589 1.00804436206818 1.00890123844147 1.00432074069977 1.00804436206818 1.00559306144714 1.00592517852783 1.00027298927307 1.00460863113403 1.00095081329346 1.00027298927307 0.990636646747589 1.00095081329346 0.991126835346222 1.00460863113403 1.00095081329346 1.00952184200287 0.9984210729599 1.00095081329346 0.991126835346222 0.9984210729599 0.98929750919342 0.990636646747589 1.00804436206818 0.991126835346222 1.01124227046967 1.00804436206818 1.00559306144714 1.01124227046967 1.00084471702576 0.991126835346222 1.01124227046967 0.98929750919342 0.999307453632355 1.01124227046967 1.00084471702576 0.999307453632355 1.01856577396393 1.00459003448486 0.984097003936768 1.00458824634552 0.984095275402069 0.984097003936768 1.00763607025146 0.984095275402069 1.0076357126236 1.00458824634552 0.984095275402069 1.00459480285645 0.98410177230835 0.984095275402069 1.0076357126236 0.98410177230835 1.00763726234436 1.00763607025146 1.01425755023956 1.0076357126236 1.01425528526306 1.01425755023956 0.979331731796265 1.01425528526306 0.97933292388916 1.0076357126236 1.01425528526306 1.00763726234436 1.01426362991333 1.01425528526306 0.97933292388916 1.01426362991333 0.979328453540802 1.00459480285645 0.98410177230835 1.0045702457428 0.984077453613281 0.98410177230835 1.00763726234436 0.984077453613281 1.00763118267059 1.0045702457428 0.984077453613281 1.00466167926788 0.984168171882629 0.984077453613281 1.00763118267059 0.984168171882629 1.00765419006348 1.00763726234436 1.01426362991333 1.00763118267059 1.01423239707947 1.01426362991333 0.979328453540802 1.01423239707947 0.979345202445984 1.00763118267059 1.01423239707947 1.00765419006348 1.01434922218323 1.01423239707947 0.979345202445984 1.01434922218323 0.979282677173615 0.979331731796265 0.997162222862244 0.97933292388916 0.997161448001862 0.997162222862244 1.02754044532776 0.997161448001862 1.02754020690918 0.97933292388916 0.997161448001862 0.979328453540802 0.9971644282341 0.997161448001862 1.02754020690918 0.9971644282341 1.02754104137421 1.02754044532776 0.986092388629913 1.02754020690918 0.986093401908875 0.986092388629913 0.974265515804291 0.986093401908875 0.974264442920685 1.02754020690918 0.986093401908875 1.02754104137421 0.986089646816254 0.986093401908875 0.974264442920685 0.986089646816254 0.974268436431885 0.979328453540802 0.9971644282341 0.979345202445984 0.997153282165527 0.9971644282341 1.02754104137421 0.997153282165527 1.02753806114197 0.979345202445984 0.997153282165527 0.979282677173615 0.99719500541687 0.997153282165527 1.02753806114197 0.99719500541687 1.02754902839661 1.02754104137421 0.986089646816254 1.02753806114197 0.986103534698486 0.986089646816254 0.974268436431885 0.986103534698486 0.974253535270691 1.02753806114197 0.986103534698486 1.02754902839661 0.986051678657532 0.986103534698486 0.974253535270691 0.986051678657532 0.974309206008911 1.00466167926788 0.984168171882629 1.00432074069977 0.98382967710495 0.984168171882629 1.00765419006348 0.98382967710495 1.00756812095642 1.00432074069977 0.98382967710495 1.00559306144714 0.985092878341675 0.98382967710495 1.00756812095642 0.985092878341675 1.00788950920105 1.00765419006348 1.01434922218323 1.00756812095642 1.01391303539276 1.01434922218323 0.979282677173615 1.01391303539276 0.97951602935791 1.00756812095642 1.01391303539276 1.00788950920105 1.01554095745087 1.01391303539276 0.97951602935791 1.01554095745087 0.978645086288452 1.00559306144714 0.985092878341675 1.00084471702576 0.9803786277771 0.985092878341675 1.00788950920105 0.9803786277771 1.00669002532959 1.00084471702576 0.9803786277771 1.01856577396393 0.997972369194031 0.9803786277771 1.00669002532959 0.997972369194031 1.01116633415222 1.00788950920105 1.01554095745087 1.00669002532959 1.0094655752182 1.01554095745087 0.978645086288452 1.0094655752182 0.981895685195923 1.00669002532959 1.0094655752182 1.01116633415222 1.03213882446289 1.0094655752182 0.981895685195923 1.03213882446289 0.969764232635498 0.979282677173615 0.99719500541687 0.97951602935791 0.997039258480072 0.99719500541687 1.02754902839661 0.997039258480072 1.02750813961029 0.97951602935791 0.997039258480072 0.978645086288452 0.997620403766632 0.997039258480072 1.02750813961029 0.997620403766632 1.02766096591949 1.02754902839661 0.986051678657532 1.02750813961029 0.986245214939117 0.986051678657532 0.974309206008911 0.986245214939117 0.974101364612579 1.02750813961029 0.986245214939117 1.02766096591949 0.985523045063019 0.986245214939117 0.974101364612579 0.985523045063019 0.974877119064331 0.978645086288452 0.997620403766632 0.981895685195923 0.99545156955719 0.997620403766632 1.02766096591949 0.99545156955719 1.02709031105042 0.981895685195923 0.99545156955719 0.969764232635498 1.00354588031769 0.99545156955719 1.02709031105042 1.00354588031769 1.02922010421753 1.02766096591949 0.985523045063019 1.02709031105042 0.988218188285828 0.985523045063019 0.974877119064331 0.988218188285828 0.971982061862946 1.02709031105042 0.988218188285828 1.02922010421753 0.978159785270691 0.988218188285828 0.971982061862946 0.978159785270691 0.982786476612091 0.974265277385712 1.03106248378754 0.974265277385712 1.03106248378754 1.03106248378754 1.01594710350037 1.03106248378754 1.01594710350037 0.974265277385712 1.03106248378754 0.974265277385712 1.03106248378754 1.03106248378754 1.01594710350037 1.03106248378754 1.01594710350037 1.01594710350037 0.955655753612518 1.01594710350037 0.955655753612518 0.955655753612518 0.996701776981354 0.955655753612518 0.996701776981354 1.01594710350037 0.955655753612518 1.01594710350037 0.955655753612518 0.955655753612518 0.996701776981354 0.955655753612518 0.996701776981354 0.974265277385712 1.03106248378754 0.974265277385712 1.03106260299683 1.03106248378754 1.01594710350037 1.03106260299683 1.01594710350037 0.974265277385712 1.03106260299683 0.974265277385712 1.03106248378754 1.03106260299683 1.01594710350037 1.03106248378754 1.01594698429108 1.01594710350037 0.955655753612518 1.01594710350037 0.955655753612518 0.955655753612518 0.996701776981354 0.955655753612518 0.996701776981354 1.01594710350037 0.955655753612518 1.01594698429108 0.955655694007874 0.955655753612518 0.996701776981354 0.955655694007874 0.996701717376709 0.996701776981354 1.05568158626556 0.996701776981354 1.05568158626556 1.05568158626556 0.990204393863678 1.05568158626556 0.990204393863678 0.996701776981354 1.05568158626556 0.996701776981354 1.05568158626556 1.05568158626556 0.990204393863678 1.05568158626556 0.990204393863678 0.990204393863678 0.932057082653046 0.990204393863678 0.932057082653046 0.932057082653046 1.02132439613342 0.932057082653046 1.02132439613342 0.990204393863678 0.932057082653046 0.990204393863678 0.932057082653046 0.932057082653046 1.02132439613342 0.932057082653046 1.02132439613342 0.996701776981354 1.05568158626556 0.996701776981354 1.05568158626556 1.05568158626556 0.990204393863678 1.05568158626556 0.990204453468323 0.996701776981354 1.05568158626556 0.996701717376709 1.05568146705627 1.05568158626556 0.990204453468323 1.05568146705627 0.990204334259033 0.990204393863678 0.932057082653046 0.990204453468323 0.93205714225769 0.932057082653046 1.02132439613342 0.93205714225769 1.02132451534271 0.990204453468323 0.93205714225769 0.990204334259033 0.932057023048401 0.93205714225769 1.02132451534271 0.932057023048401 1.02132439613342 0.974265277385712 1.03106248378754 0.974265277385712 1.03106260299683 1.03106248378754 1.01594698429108 1.03106260299683 1.01594722270966 0.974265277385712 1.03106260299683 0.974265336990356 1.03106224536896 1.03106260299683 1.01594722270966 1.03106224536896 1.01594650745392 1.01594698429108 0.955655694007874 1.01594722270966 0.955655932426453 0.955655694007874 0.996701717376709 0.955655932